/*--------------------------------*- C++ -*----------------------------------*\
  =========                 |
  \\      /  F ield         | OpenFOAM: The Open Source CFD Toolbox
   \\    /   O peration     | Website:  https://openfoam.org
    \\  /    A nd           | Version:  9
     \\/     M anipulation  |
\*---------------------------------------------------------------------------*/
FoamFile
{
    format      ascii;
    class       volScalarField;
    location    "1";
    object      p;
}
// * * * * * * * * * * * * * * * * * * * * * * * * * * * * * * * * * * * * * //

dimensions      [0 2 -2 0 0 0 0];

internalField   nonuniform List<scalar> 
16384
(
1.4782e-05
0.00121222
0.000306977
-0.00326216
-0.009298
-0.017494
-0.0274979
-0.0389499
-0.0515121
-0.0648798
-0.0787825
-0.0929828
-0.107274
-0.121478
-0.135441
-0.14903
-0.162132
-0.174651
-0.186505
-0.197626
-0.207959
-0.217454
-0.226074
-0.233787
-0.240566
-0.246392
-0.251246
-0.255118
-0.257995
-0.259871
-0.26074
-0.260596
-0.259437
-0.25726
-0.254064
-0.249847
-0.244611
-0.238355
-0.23108
-0.222787
-0.213481
-0.203163
-0.19184
-0.179516
-0.166199
-0.151898
-0.136625
-0.120393
-0.103218
-0.0851165
-0.0661109
-0.0462246
-0.0254845
-0.00392113
0.0184317
0.0415365
0.0653518
0.0898327
0.11493
0.140591
0.166759
0.193373
0.220369
0.247677
0.275228
0.302944
0.330747
0.358556
0.386287
0.413852
0.441163
0.46813
0.494661
0.520665
0.546049
0.570722
0.594591
0.617569
0.639566
0.660498
0.680283
0.698843
0.716103
0.731996
0.746458
0.759431
0.770865
0.780716
0.788948
0.795534
0.800452
0.803693
0.805254
0.805141
0.803371
0.799971
0.794974
0.788426
0.780382
0.770904
0.760067
0.747953
0.734652
0.720265
0.7049
0.688674
0.671711
0.654143
0.636109
0.617755
0.599236
0.58071
0.562344
0.544309
0.526784
0.509952
0.494003
0.47913
0.465529
0.453399
0.442936
0.434327
0.427739
0.423293
0.42102
0.420799
0.422257
0.424378
-0.00116116
2.85815e-05
-0.0010086
-0.00435968
-0.00974581
-0.0169601
-0.025755
-0.0358537
-0.0469832
-0.058887
-0.0713301
-0.084101
-0.0970114
-0.109896
-0.122609
-0.135023
-0.14703
-0.158533
-0.169453
-0.17972
-0.189276
-0.198072
-0.206066
-0.213225
-0.21952
-0.224927
-0.229427
-0.233006
-0.23565
-0.237349
-0.238096
-0.237883
-0.236707
-0.234563
-0.23145
-0.227364
-0.222306
-0.216274
-0.20927
-0.201295
-0.192351
-0.182442
-0.171573
-0.159749
-0.146978
-0.133269
-0.118634
-0.103085
-0.0866384
-0.069312
-0.0511264
-0.0321048
-0.0122738
0.00833714
0.029695
0.0517633
0.0745022
0.0978682
0.121814
0.146289
0.171239
0.196606
0.222327
0.248339
0.274571
0.300953
0.32741
0.353864
0.380236
0.406443
0.432401
0.458025
0.483229
0.507926
0.53203
0.555452
0.578109
0.599916
0.62079
0.640652
0.659424
0.677035
0.693415
0.7085
0.722232
0.734556
0.745427
0.754805
0.762655
0.768955
0.773684
0.776836
0.778408
0.778408
0.776853
0.773769
0.76919
0.763161
0.755732
0.746967
0.736934
0.725713
0.713392
0.700064
0.685834
0.670813
0.655117
0.638872
0.622209
0.605268
0.58819
0.571127
0.554232
0.537665
0.521591
0.506177
0.491593
0.478013
0.465607
0.454545
0.444988
0.43708
0.430944
0.426653
0.4242
0.423474
0.424372
0.426493
-0.000256075
0.0010651
2.49072e-05
-0.00318493
-0.00818443
-0.0147913
-0.0228049
-0.0319952
-0.0421314
-0.0529928
-0.0643729
-0.0760829
-0.0879518
-0.0998267
-0.111572
-0.123067
-0.134207
-0.1449
-0.155068
-0.164642
-0.173565
-0.181787
-0.189266
-0.195966
-0.201858
-0.206916
-0.211121
-0.214454
-0.216902
-0.218454
-0.2191
-0.218833
-0.217646
-0.215535
-0.212496
-0.208527
-0.203626
-0.197793
-0.191027
-0.18333
-0.174704
-0.165151
-0.154677
-0.143287
-0.130989
-0.117792
-0.103706
-0.0887454
-0.0729247
-0.0562616
-0.0387762
-0.0204913
-0.0014326
0.018371
0.0388875
0.0600817
0.0819149
0.104345
0.127327
0.150811
0.174746
0.199075
0.223739
0.248676
0.27382
0.299102
0.32445
0.349791
0.375048
0.400143
0.424995
0.449523
0.473646
0.49728
0.520342
0.542751
0.564425
0.585284
0.605249
0.624246
0.642202
0.659047
0.674716
0.689149
0.702291
0.714092
0.724508
0.733502
0.741042
0.747107
0.75168
0.754754
0.756327
0.75641
0.755019
0.752178
0.747923
0.742296
0.735347
0.727137
0.717732
0.707209
0.695652
0.683153
0.669809
0.655726
0.641018
0.625803
0.610207
0.59436
0.578398
0.562462
0.546698
0.531254
0.516283
0.50194
0.48838
0.47576
0.464232
0.453945
0.445036
0.43763
0.431827
0.427691
0.425219
0.424358
0.425265
0.427953
0.00331814
0.00442242
0.00322666
2.56513e-06
-0.00484293
-0.01113
-0.0186782
-0.0272852
-0.036749
-0.0468757
-0.0574824
-0.0684001
-0.079474
-0.0905639
-0.101544
-0.112302
-0.122738
-0.132766
-0.142311
-0.151307
-0.159697
-0.167432
-0.17447
-0.180777
-0.186321
-0.191078
-0.195026
-0.198147
-0.200426
-0.201852
-0.202413
-0.202101
-0.20091
-0.198834
-0.195868
-0.192011
-0.187259
-0.181611
-0.175066
-0.167627
-0.159293
-0.150069
-0.139958
-0.128966
-0.117099
-0.104367
-0.0907807
-0.0763522
-0.0610964
-0.0450303
-0.0281734
-0.0105477
0.0078218
0.0269071
0.0466773
0.0670982
0.0881326
0.10974
0.131876
0.154494
0.177543
0.20097
0.224717
0.248724
0.272927
0.297262
0.321658
0.346045
0.370349
0.394495
0.418406
0.442004
0.465209
0.487943
0.510126
0.531679
0.552525
0.572586
0.591788
0.610059
0.627329
0.643532
0.658606
0.672493
0.685141
0.696503
0.706536
0.715207
0.722485
0.728349
0.732786
0.735787
0.737354
0.737496
0.73623
0.73358
0.729581
0.724273
0.717707
0.70994
0.701037
0.691074
0.680129
0.668291
0.655656
0.642325
0.628406
0.614012
0.599264
0.584285
0.569206
0.554159
0.539281
0.524712
0.510595
0.497074
0.484292
0.472392
0.461514
0.451792
0.44335
0.436301
0.43074
0.426739
0.424317
0.423475
0.424547
0.42776
0.00939
0.00983897
0.00823184
0.00481271
-6.02033e-05
-0.00621475
-0.013486
-0.0216953
-0.0306657
-0.0402268
-0.0502174
-0.0604867
-0.0708957
-0.0813171
-0.0916354
-0.101747
-0.111561
-0.120994
-0.129977
-0.138446
-0.146348
-0.153635
-0.160266
-0.166207
-0.171428
-0.175904
-0.179612
-0.182535
-0.184658
-0.185967
-0.186452
-0.186104
-0.184915
-0.18288
-0.179993
-0.17625
-0.17165
-0.16619
-0.159869
-0.152688
-0.144648
-0.135751
-0.126001
-0.115403
-0.103963
-0.0916912
-0.0785964
-0.0646909
-0.0499888
-0.0345064
-0.0182623
-0.00127792
0.0164228
0.0348128
0.0538624
0.0735386
0.0938055
0.114624
0.135952
0.157744
0.17995
0.202521
0.225399
0.248528
0.271845
0.295289
0.318792
0.342285
0.365699
0.38896
0.411994
0.434726
0.457081
0.478982
0.500351
0.521115
0.541197
0.560524
0.579024
0.596628
0.613268
0.628882
0.64341
0.656796
0.668991
0.67995
0.689631
0.698003
0.705038
0.710715
0.715022
0.717951
0.719505
0.719693
0.718531
0.716044
0.712266
0.707236
0.701003
0.693624
0.685162
0.675687
0.665279
0.654022
0.642008
0.629334
0.616105
0.602428
0.588419
0.574195
0.55988
0.5456
0.531483
0.517663
0.504271
0.491442
0.479309
0.468003
0.457654
0.448383
0.440306
0.433529
0.428144
0.424233
0.421834
0.420988
0.422122
0.425559
0.0176806
0.017127
0.0148732
0.0110796
0.00600568
-0.00018933
-0.00735491
-0.0153346
-0.0239741
-0.0331248
-0.0426449
-0.0524009
-0.0622687
-0.0721338
-0.0818919
-0.0914488
-0.10072
-0.10963
-0.118114
-0.126112
-0.133574
-0.140455
-0.146715
-0.152322
-0.157247
-0.161464
-0.164953
-0.167696
-0.169676
-0.170882
-0.171302
-0.170926
-0.169748
-0.167759
-0.164956
-0.161333
-0.156888
-0.151618
-0.145522
-0.1386
-0.130852
-0.12228
-0.112888
-0.102679
-0.0916612
-0.079841
-0.0672281
-0.0538339
-0.0396718
-0.024757
-0.00910758
0.00725624
0.0243114
0.0420322
0.0603898
0.0793529
0.0988867
0.118954
0.139514
0.160522
0.181933
0.203695
0.225757
0.248061
0.27055
0.293161
0.315831
0.338495
0.361082
0.383524
0.405749
0.427684
0.449256
0.470391
0.491016
0.511057
0.530441
0.549099
0.566959
0.583955
0.600023
0.615102
0.629134
0.642066
0.65385
0.664441
0.673803
0.681902
0.688714
0.694218
0.698402
0.701261
0.702796
0.703016
0.701939
0.699589
0.695998
0.691205
0.685258
0.678212
0.670128
0.661075
0.651129
0.640372
0.628892
0.616784
0.604146
0.591084
0.577706
0.564126
0.55046
0.536827
0.523351
0.510155
0.497364
0.485103
0.473495
0.462663
0.452726
0.443798
0.435986
0.429391
0.424107
0.420218
0.417777
0.416848
0.417888
0.421239
0.0278657
0.0260591
0.0229657
0.0186355
0.0132017
0.00680787
-0.000409005
-0.00831374
-0.0167733
-0.0256585
-0.0348455
-0.044217
-0.0536629
-0.0630816
-0.0723796
-0.0814722
-0.090283
-0.0987438
-0.106794
-0.114379
-0.121453
-0.127972
-0.133902
-0.139209
-0.143868
-0.147854
-0.151147
-0.153729
-0.155585
-0.156702
-0.157069
-0.156677
-0.155517
-0.153584
-0.15087
-0.147372
-0.143085
-0.138008
-0.132137
-0.125473
-0.118015
-0.109765
-0.100726
-0.0909004
-0.0802949
-0.0689162
-0.056773
-0.0438758
-0.0302368
-0.0158708
-0.000794454
0.0149729
0.0314093
0.0484903
0.0661884
0.0844736
0.103313
0.12267
0.142505
0.162778
0.183442
0.20445
0.225749
0.247288
0.269008
0.29085
0.312753
0.334652
0.356482
0.378174
0.39966
0.420869
0.44173
0.462171
0.482122
0.50151
0.520266
0.538321
0.555607
0.572059
0.587614
0.602214
0.615802
0.628328
0.639744
0.650007
0.659082
0.666937
0.673547
0.678893
0.682964
0.685754
0.687265
0.687507
0.686497
0.684257
0.68082
0.676224
0.670516
0.663749
0.655982
0.647283
0.637725
0.627387
0.616355
0.60472
0.592576
0.580026
0.567172
0.554124
0.540992
0.527891
0.514934
0.502241
0.489928
0.478112
0.466909
0.456432
0.446794
0.4381
0.430452
0.423947
0.418676
0.414726
0.412159
0.411049
0.411836
0.414837
0.0396111
0.0363773
0.0322932
0.0272896
0.0213594
0.0146299
0.00722551
-0.00073919
-0.00915085
-0.0178982
-0.026874
-0.0359759
-0.0451077
-0.0541798
-0.0631098
-0.0718226
-0.0802498
-0.0883304
-0.0960094
-0.103238
-0.109973
-0.116176
-0.121814
-0.126857
-0.131281
-0.135062
-0.138183
-0.140625
-0.142375
-0.143419
-0.143748
-0.143351
-0.142221
-0.140351
-0.137734
-0.134366
-0.130242
-0.12536
-0.119716
-0.113311
-0.106142
-0.0982114
-0.0895203
-0.0800722
-0.0698717
-0.0589251
-0.0472401
-0.0348261
-0.0216947
-0.00785936
0.00666427
0.021858
0.0377012
0.0541705
0.07124
0.0888809
0.107062
0.125748
0.144901
0.164483
0.184448
0.204751
0.225342
0.246169
0.267178
0.288311
0.309507
0.330706
0.351843
0.372852
0.393666
0.414217
0.434434
0.45425
0.473594
0.492397
0.510589
0.528105
0.544879
0.560846
0.575946
0.59012
0.603316
0.615481
0.626571
0.636545
0.645365
0.653002
0.659432
0.664637
0.668604
0.671329
0.672814
0.673068
0.672107
0.669955
0.666642
0.662207
0.656695
0.650156
0.64265
0.634243
0.625004
0.615011
0.604347
0.593099
0.581359
0.569225
0.556796
0.544177
0.531473
0.518792
0.506244
0.49394
0.481991
0.470508
0.459597
0.449367
0.439921
0.431359
0.423778
0.41727
0.411924
0.407826
0.405041
0.403645
0.404032
0.406469
0.0526016
0.0478237
0.0426361
0.0368487
0.0303084
0.0231275
0.0154191
0.00727815
-0.00120017
-0.00992112
-0.0187927
-0.0277271
-0.036641
-0.045457
-0.0541031
-0.0625136
-0.0706286
-0.0783939
-0.085761
-0.0926863
-0.099131
-0.105061
-0.110446
-0.11526
-0.11948
-0.123085
-0.126057
-0.128381
-0.130044
-0.131033
-0.131338
-0.130949
-0.12986
-0.128062
-0.125551
-0.122319
-0.118364
-0.113681
-0.108267
-0.102121
-0.0952415
-0.087628
-0.0792821
-0.0702061
-0.0604039
-0.0498807
-0.0386433
-0.0267002
-0.0140616
-0.00073998
0.0132502
0.0278919
0.0431659
0.0590502
0.0755203
0.0925487
0.110106
0.128158
0.14667
0.165602
0.184914
0.204559
0.224492
0.244661
0.265013
0.285493
0.306042
0.326601
0.347106
0.367494
0.3877
0.407656
0.427296
0.44655
0.465351
0.483632
0.501324
0.518363
0.534683
0.550222
0.564921
0.578723
0.591574
0.603424
0.614229
0.623949
0.632547
0.639994
0.646265
0.651344
0.655219
0.657884
0.659341
0.659599
0.658675
0.65659
0.653376
0.649069
0.643713
0.637359
0.630063
0.621889
0.612906
0.60319
0.592819
0.58188
0.57046
0.558654
0.546558
0.534272
0.521896
0.509535
0.497293
0.485274
0.473585
0.462328
0.451607
0.441521
0.432168
0.423643
0.416037
0.409436
0.403928
0.399593
0.396498
0.394718
0.394577
0.396284
0.0665491
0.0601527
0.0537807
0.0471231
0.0398803
0.0321516
0.0240403
0.0156238
0.0069801
-0.00181132
-0.0106729
-0.0195302
-0.0283128
-0.0369542
-0.045393
-0.0535727
-0.0614416
-0.0689527
-0.0760637
-0.0827366
-0.0889376
-0.0946368
-0.0998077
-0.104427
-0.108474
-0.11193
-0.114779
-0.117008
-0.118603
-0.119554
-0.119851
-0.119486
-0.118449
-0.116735
-0.114338
-0.111251
-0.10747
-0.102991
-0.0978107
-0.0919261
-0.0853355
-0.0780383
-0.0700348
-0.0613266
-0.0519166
-0.041809
-0.0310095
-0.0195254
-0.00736578
0.00545812
0.0189331
0.0330434
0.0477713
0.063096
0.0789945
0.0954411
0.112407
0.129861
0.147769
0.166094
0.184794
0.203829
0.223151
0.242711
0.262459
0.28234
0.302298
0.322274
0.342207
0.362035
0.381693
0.401117
0.42024
0.438995
0.457316
0.475135
0.492388
0.509008
0.524932
0.540099
0.55445
0.567929
0.580483
0.592062
0.602623
0.612124
0.620532
0.627816
0.633952
0.638923
0.642717
0.645328
0.646758
0.647016
0.646118
0.644084
0.640946
0.636738
0.631503
0.625292
0.618159
0.610167
0.601383
0.591879
0.581734
0.57103
0.559853
0.548293
0.536444
0.524402
0.512263
0.500128
0.488095
0.476265
0.464737
0.45361
0.44298
0.432944
0.423592
0.415013
0.407293
0.400516
0.394761
0.390106
0.386615
0.38436
0.383589
0.384438
0.0811935
0.0731346
0.065522
0.0579285
0.0499096
0.0415541
0.0329578
0.0241818
0.0152884
0.00634272
-0.00259106
-0.0114513
-0.0201793
-0.0287196
-0.0370208
-0.045035
-0.0527188
-0.0600324
-0.0669399
-0.073409
-0.079411
-0.0849203
-0.0899142
-0.0943725
-0.0982774
-0.101613
-0.104365
-0.106521
-0.10807
-0.109002
-0.109307
-0.108979
-0.108009
-0.10639
-0.104117
-0.101183
-0.0975841
-0.093315
-0.0883718
-0.0827514
-0.0764513
-0.0694701
-0.0618072
-0.0534634
-0.0444404
-0.0347413
-0.0243707
-0.0133347
-0.00164117
0.0107001
0.0236771
0.0372756
0.0514791
0.0662684
0.0816221
0.0975159
0.113923
0.130813
0.148153
0.165908
0.18404
0.202507
0.221264
0.240264
0.259458
0.278792
0.298213
0.317661
0.337079
0.356404
0.375574
0.394524
0.41319
0.431506
0.449406
0.466823
0.483694
0.499952
0.515537
0.530386
0.544441
0.557646
0.569949
0.581301
0.591657
0.600978
0.609227
0.616376
0.622401
0.627282
0.631009
0.633575
0.634981
0.635237
0.634356
0.63236
0.629277
0.625143
0.62
0.613896
0.606884
0.599026
0.590387
0.581039
0.571056
0.56052
0.549514
0.538125
0.526444
0.514563
0.502576
0.490578
0.478666
0.466933
0.455476
0.444387
0.43376
0.423684
0.414245
0.405528
0.397612
0.390577
0.384497
0.379444
0.37548
0.372674
0.371188
0.371087
0.0962998
0.0865559
0.0776655
0.0690876
0.0602355
0.0511901
0.0420414
0.0328358
0.0236212
0.0144495
0.00537216
-0.00356108
-0.0123026
-0.0208075
-0.0290335
-0.0369419
-0.0444967
-0.0516654
-0.0584185
-0.0647296
-0.070575
-0.0759337
-0.0807869
-0.0851177
-0.0889111
-0.0921538
-0.0948338
-0.0969406
-0.0984644
-0.0993965
-0.0997286
-0.0994533
-0.0985635
-0.0970526
-0.0949146
-0.0921435
-0.088734
-0.0846812
-0.0799804
-0.0746278
-0.0686204
-0.0619558
-0.0546326
-0.0466505
-0.0380101
-0.0287134
-0.0187637
-0.00816589
0.00307359
0.0149462
0.0274414
0.0405464
0.0542462
0.0685231
0.0833572
0.0987257
0.114603
0.130962
0.147769
0.164993
0.182595
0.200535
0.218772
0.237258
0.255945
0.274783
0.293717
0.312692
0.331648
0.350526
0.369264
0.387798
0.406065
0.423999
0.441536
0.458609
0.475154
0.491107
0.506406
0.52099
0.5348
0.54778
0.559879
0.571046
0.581238
0.590414
0.598539
0.605582
0.611519
0.616331
0.620006
0.622537
0.623926
0.624179
0.623311
0.621342
0.6183
0.614219
0.60914
0.60311
0.596183
0.588416
0.579875
0.570629
0.560752
0.550322
0.539421
0.528133
0.516546
0.50475
0.492835
0.480894
0.469019
0.4573
0.445829
0.434695
0.423985
0.413785
0.404179
0.395243
0.387055
0.379688
0.37321
0.367688
0.363182
0.359759
0.357492
0.356373
0.111655
0.100219
0.0900282
0.0804312
0.0707028
0.060918
0.0511627
0.0414699
0.0318741
0.0224152
0.0131328
0.00406556
-0.00474947
-0.0132771
-0.0214843
-0.0293405
-0.0368176
-0.04389
-0.0505345
-0.0567306
-0.0624598
-0.0677055
-0.0724528
-0.0766885
-0.0804005
-0.0835782
-0.086212
-0.0882932
-0.0898136
-0.0907656
-0.0911421
-0.0909363
-0.0901417
-0.0887519
-0.086761
-0.0841629
-0.080952
-0.0771228
-0.0726704
-0.0675903
-0.0618786
-0.0555321
-0.0485486
-0.0409265
-0.0326653
-0.0237658
-0.01423
-0.00406136
0.00673496
0.0181519
0.0301803
0.0428089
0.0560242
0.0698103
0.0841487
0.0990182
0.114395
0.130252
0.146561
0.163288
0.180398
0.197852
0.21561
0.233626
0.251853
0.270242
0.288739
0.30729
0.325838
0.344322
0.362683
0.380856
0.39878
0.416389
0.433618
0.450402
0.466678
0.48238
0.497447
0.511817
0.525432
0.538236
0.550176
0.561202
0.57127
0.580339
0.588372
0.59534
0.601215
0.60598
0.609621
0.612131
0.61351
0.613764
0.612907
0.610958
0.607945
0.6039
0.598863
0.59288
0.586003
0.57829
0.569804
0.560613
0.550789
0.540409
0.529552
0.518301
0.506741
0.494959
0.483043
0.471083
0.459168
0.447384
0.435821
0.424562
0.413691
0.403291
0.39344
0.384213
0.37568
0.367911
0.36097
0.354915
0.349809
0.345713
0.342613
0.340429
0.127065
0.11394
0.102438
0.0917989
0.0811629
0.0706007
0.0601958
0.0499687
0.0399421
0.0301444
0.0206044
0.0113504
0.00240944
-0.00619243
-0.0144309
-0.0222834
-0.0297294
-0.03675
-0.0433285
-0.04945
-0.055101
-0.0602694
-0.0649444
-0.0691163
-0.0727763
-0.0759166
-0.0785297
-0.080609
-0.0821479
-0.0831402
-0.0835797
-0.0834604
-0.0827765
-0.081522
-0.0796908
-0.0772769
-0.0742743
-0.0706772
-0.0664801
-0.0616779
-0.056266
-0.0502402
-0.0435972
-0.0363343
-0.02845
-0.0199435
-0.0108156
-0.00106828
0.00929463
0.0202675
0.0318429
0.044011
0.05676
0.0700754
0.0839405
0.0983356
0.113239
0.128624
0.144465
0.160729
0.177383
0.194389
0.211708
0.229296
0.247107
0.265093
0.283201
0.301378
0.319567
0.33771
0.355745
0.373612
0.391246
0.408584
0.425561
0.442111
0.458171
0.473676
0.488563
0.502771
0.516241
0.528917
0.540744
0.551674
0.561659
0.570659
0.578636
0.585558
0.591401
0.596142
0.599769
0.602273
0.603653
0.603915
0.60307
0.601138
0.598145
0.594122
0.589109
0.58315
0.576296
0.568603
0.560135
0.550956
0.541138
0.530756
0.519888
0.508614
0.497019
0.485186
0.473202
0.461153
0.449125
0.437204
0.425474
0.414018
0.402914
0.392241
0.382075
0.372486
0.363543
0.355309
0.347844
0.341201
0.335442
0.330626
0.326655
0.323371
0.142352
0.127551
0.114734
0.103039
0.0914735
0.0801058
0.0690176
0.0582186
0.0477203
0.0375407
0.0276986
0.0182125
0.00910018
0.000378923
-0.00793525
-0.0158276
-0.0232846
-0.0302944
-0.0368462
-0.0429306
-0.0485391
-0.0536642
-0.0582991
-0.0624376
-0.0660743
-0.069204
-0.0718218
-0.0739229
-0.0755025
-0.0765556
-0.0770772
-0.0770622
-0.0765053
-0.0754008
-0.0737428
-0.071525
-0.0687414
-0.0653856
-0.0614518
-0.056934
-0.0518268
-0.0461252
-0.0398246
-0.0329213
-0.0254123
-0.0172958
-0.00857088
0.000761735
0.0106998
0.0212392
0.032374
0.0440961
0.0563953
0.0692589
0.0826716
0.0966155
0.11107
0.126012
0.141414
0.157247
0.173479
0.190073
0.206992
0.224192
0.24163
0.259256
0.277021
0.294872
0.312751
0.330601
0.348363
0.365975
0.383373
0.400493
0.41727
0.43364
0.449538
0.464898
0.479658
0.493755
0.50713
0.519725
0.531487
0.542363
0.552308
0.561278
0.569235
0.576147
0.581985
0.58673
0.590365
0.592881
0.594276
0.594555
0.593728
0.591813
0.588835
0.584826
0.579822
0.573867
0.567012
0.559312
0.550827
0.541622
0.531768
0.521338
0.510409
0.49906
0.487372
0.475428
0.463313
0.45111
0.438904
0.426777
0.414813
0.403089
0.391684
0.380672
0.370125
0.360112
0.350696
0.341939
0.333895
0.326614
0.320157
0.314584
0.309709
0.305305
0.157353
0.140892
0.126765
0.114007
0.101498
0.0893049
0.077508
0.0661075
0.0551045
0.0445074
0.0343259
0.0245691
0.0152463
0.00636625
-0.00206288
-0.0100338
-0.0175401
-0.0245762
-0.0311374
-0.0372196
-0.0428192
-0.0479331
-0.0525586
-0.0566931
-0.0603344
-0.0634801
-0.0661276
-0.0682741
-0.0699165
-0.0710513
-0.0716746
-0.0717821
-0.0713691
-0.0704301
-0.0689594
-0.0669506
-0.0643974
-0.0612932
-0.0576314
-0.0534055
-0.048609
-0.043236
-0.0372808
-0.0307385
-0.0236047
-0.0158761
-0.00755061
0.00137275
0.0108932
0.0210083
0.0317137
0.0430029
0.0548675
0.0672965
0.0802761
0.0937903
0.10782
0.122343
0.137335
0.152768
0.16861
0.184827
0.201382
0.218233
0.235337
0.252647
0.270113
0.287681
0.305298
0.322905
0.340443
0.35785
0.375063
0.392018
0.408649
0.424891
0.440678
0.455947
0.470631
0.484668
0.497998
0.510562
0.522305
0.533174
0.543121
0.552102
0.560077
0.567013
0.57288
0.577656
0.581324
0.583873
0.585301
0.585609
0.584808
0.582914
0.579952
0.57595
0.570945
0.564981
0.558105
0.550373
0.541843
0.53258
0.522653
0.512133
0.501097
0.489623
0.47779
0.46568
0.453376
0.44096
0.428514
0.416119
0.403856
0.391802
0.380032
0.368618
0.357629
0.347132
0.337187
0.327853
0.319181
0.311216
0.304023
0.29766
0.291858
0.286318
0.171917
0.153816
0.138389
0.124567
0.111107
0.0980742
0.08555
0.0735252
0.0619912
0.0509478
0.0403959
0.030336
0.0207692
0.0116962
0.00311762
-0.00496648
-0.0125564
-0.0196527
-0.0262565
-0.0323687
-0.0379907
-0.0431238
-0.0477691
-0.0519279
-0.0556009
-0.0587884
-0.0614903
-0.0637057
-0.0654332
-0.0666708
-0.0674156
-0.0676643
-0.0674125
-0.0666552
-0.0653867
-0.0636006
-0.0612903
-0.0584487
-0.0550687
-0.051143
-0.0466643
-0.0416255
-0.0360199
-0.029841
-0.0230834
-0.0157421
-0.00781358
0.000704638
0.0098134
0.0195119
0.0297975
0.0406656
0.0521093
0.0641192
0.0766836
0.089788
0.103415
0.117544
0.132152
0.147212
0.162695
0.178568
0.194793
0.211332
0.228141
0.245175
0.262384
0.279715
0.297115
0.314526
0.331888
0.349139
0.366218
0.383058
0.399594
0.415761
0.431491
0.446719
0.461379
0.475408
0.488744
0.501326
0.513098
0.524006
0.533999
0.543034
0.551067
0.558064
0.563994
0.568832
0.572561
0.575168
0.576648
0.577002
0.576239
0.574375
0.571431
0.567436
0.562425
0.55644
0.549529
0.541745
0.533146
0.523796
0.513763
0.503118
0.491934
0.480291
0.468265
0.455939
0.443393
0.430708
0.417965
0.405244
0.392623
0.380179
0.367984
0.356109
0.344622
0.333585
0.32306
0.3131
0.303754
0.295066
0.287102
0.279922
0.273174
0.26649
0.185902
0.166186
0.14947
0.134588
0.120174
0.106294
0.0930295
0.0803634
0.0682783
0.0567657
0.0458181
0.0354282
0.0255889
0.0162934
0.00753512
-0.000692812
-0.00839706
-0.0155842
-0.0222608
-0.028433
-0.0341067
-0.0392876
-0.0439808
-0.0481909
-0.0519218
-0.0551764
-0.0579569
-0.0602645
-0.0620994
-0.063461
-0.0643476
-0.0647565
-0.0646839
-0.0641251
-0.0630744
-0.0615254
-0.0594713
-0.0569044
-0.053817
-0.050201
-0.0460482
-0.0413503
-0.0360994
-0.0302878
-0.0239085
-0.0169552
-0.00942266
-0.00130688
0.00739466
0.0166829
0.0265569
0.0370138
0.0480486
0.0596537
0.0718189
0.0845315
0.0977758
0.111533
0.125782
0.140497
0.155649
0.171208
0.187137
0.203398
0.21995
0.236746
0.253738
0.270875
0.288102
0.305361
0.322595
0.33974
0.356733
0.373509
0.390001
0.406144
0.421869
0.437109
0.451798
0.46587
0.479262
0.491912
0.503763
0.514757
0.524844
0.533976
0.542109
0.549207
0.555237
0.560172
0.563992
0.566684
0.56824
0.56866
0.567951
0.566128
0.563209
0.559224
0.554206
0.548195
0.541238
0.533387
0.5247
0.515239
0.505072
0.494269
0.482902
0.471049
0.458789
0.4462
0.433363
0.420359
0.407266
0.394164
0.381131
0.36824
0.355565
0.343175
0.331136
0.319509
0.308353
0.297722
0.287662
0.278214
0.269448
0.261427
0.253718
0.245884
0.199175
0.177869
0.159879
0.143944
0.128578
0.113847
0.0998354
0.0865165
0.0738652
0.0618655
0.050502
0.0397597
0.0296239
0.0200807
0.0111163
0.00271759
-0.00512843
-0.0124341
-0.0192111
-0.0254708
-0.0312236
-0.0364794
-0.0412471
-0.0455346
-0.0493487
-0.052695
-0.055578
-0.0580009
-0.0599655
-0.0614726
-0.0625214
-0.0631099
-0.063235
-0.062892
-0.0620755
-0.060779
-0.0589951
-0.056716
-0.053933
-0.0506373
-0.0468196
-0.0424705
-0.0375808
-0.0321416
-0.0261442
-0.0195808
-0.0124447
-0.0047301
0.00356717
0.0124498
0.0219188
0.031973
0.0426092
0.0538217
0.0656021
0.0779393
0.0908195
0.104226
0.118138
0.132532
0.147381
0.162654
0.178318
0.194335
0.210664
0.22726
0.244075
0.261057
0.278154
0.295307
0.312458
0.329543
0.3465
0.363261
0.379761
0.395931
0.411702
0.427007
0.441776
0.455944
0.469445
0.482215
0.494194
0.505324
0.515552
0.524828
0.533106
0.540347
0.546516
0.551585
0.555531
0.558338
0.559998
0.560508
0.559873
0.558106
0.555225
0.551257
0.546234
0.540196
0.533187
0.525259
0.516468
0.506877
0.496552
0.485563
0.473982
0.461886
0.449351
0.436457
0.423285
0.409914
0.396423
0.382891
0.369393
0.356005
0.342798
0.329842
0.3172
0.304935
0.293104
0.281759
0.270946
0.260704
0.251108
0.242225
0.233541
0.224553
0.21161
0.188741
0.169495
0.152517
0.136204
0.120623
0.10586
0.0918808
0.0786529
0.0661526
0.0543572
0.0432443
0.0327921
0.0229795
0.0137864
0.00519311
-0.00281906
-0.0102681
-0.0171709
-0.0235436
-0.0294011
-0.0347573
-0.0396247
-0.0440145
-0.0479364
-0.0513985
-0.0544076
-0.0569687
-0.0590853
-0.0607593
-0.061991
-0.062779
-0.0631207
-0.0630116
-0.0624464
-0.0614183
-0.0599199
-0.0579424
-0.0554767
-0.0525129
-0.0490408
-0.0450496
-0.040529
-0.0354685
-0.0298579
-0.0236881
-0.0169503
-0.00963727
-0.00174293
0.00673723
0.015806
0.0254642
0.0357103
0.0465407
0.0579486
0.069925
0.0824576
0.0955312
0.109127
0.123223
0.137794
0.152809
0.168238
0.184042
0.200181
0.216612
0.233287
0.250155
0.267163
0.284253
0.301365
0.318438
0.335406
0.352202
0.368759
0.385007
0.400877
0.416299
0.431202
0.445518
0.45918
0.472123
0.484283
0.495601
0.50602
0.515488
0.523958
0.531387
0.537739
0.542981
0.54709
0.550048
0.551842
0.55247
0.551933
0.550242
0.547415
0.543475
0.538455
0.532392
0.52533
0.517319
0.508415
0.498679
0.488177
0.476979
0.465156
0.452785
0.439941
0.426706
0.413158
0.399377
0.385443
0.371433
0.357424
0.34349
0.329703
0.316132
0.302841
0.289893
0.277343
0.265245
0.253643
0.242575
0.232123
0.222358
0.212687
0.202541
0.223087
0.198683
0.1782
0.160191
0.142939
0.126513
0.110998
0.0963551
0.0825439
0.0695333
0.0572938
0.0457958
0.0350105
0.0249105
0.0154691
0.00666057
-0.00153943
-0.00915426
-0.016206
-0.0227153
-0.0287014
-0.0341821
-0.0391733
-0.0436893
-0.0477428
-0.0513442
-0.0545026
-0.0572246
-0.0595154
-0.0613779
-0.0628134
-0.0638212
-0.0643989
-0.0645424
-0.0642463
-0.0635037
-0.0623066
-0.0606459
-0.0585114
-0.0558924
-0.0527774
-0.0491547
-0.0450123
-0.0403383
-0.0351211
-0.0293498
-0.0230139
-0.0161045
-0.00861346
-0.000534518
0.00813706
0.017404
0.0272668
0.0377235
0.0487695
0.0603975
0.0725971
0.0853546
0.0986532
0.112472
0.126787
0.14157
0.15679
0.17241
0.188392
0.204692
0.221263
0.238055
0.255014
0.272083
0.289201
0.306306
0.323332
0.340211
0.356876
0.373254
0.389274
0.404866
0.419957
0.434476
0.448354
0.461523
0.473918
0.485476
0.496139
0.505851
0.514562
0.522228
0.528808
0.534268
0.538581
0.541727
0.543691
0.544468
0.544058
0.542468
0.539715
0.53582
0.530814
0.524734
0.517622
0.509527
0.500504
0.490613
0.479919
0.468492
0.456405
0.443732
0.43055
0.416939
0.402978
0.388749
0.374329
0.359799
0.345234
0.330709
0.316296
0.302065
0.288082
0.274407
0.261098
0.248209
0.235783
0.22386
0.212527
0.201861
0.191191
0.179882
0.233491
0.207581
0.185882
0.166856
0.148676
0.13141
0.115147
0.0998404
0.0854423
0.0719151
0.0592224
0.0473279
0.0361963
0.0257937
0.0160872
0.0070455
-0.00136157
-0.00916254
-0.0163843
-0.0230521
-0.0291891
-0.0348169
-0.0399548
-0.0446202
-0.0488283
-0.0525922
-0.0559226
-0.0588281
-0.0613152
-0.0633881
-0.0650486
-0.0662967
-0.0671304
-0.0675459
-0.0675375
-0.0670982
-0.0662195
-0.0648915
-0.0631034
-0.0608432
-0.0580984
-0.0548559
-0.0511023
-0.0468242
-0.0420085
-0.0366423
-0.0307137
-0.0242116
-0.0171261
-0.00944898
-0.00117352
0.00770499
0.017189
0.0272786
0.0379711
0.0492611
0.0611401
0.0735961
0.0866139
0.100174
0.114255
0.128829
0.143865
0.15933
0.175184
0.191385
0.207886
0.224638
0.241587
0.258675
0.275841
0.293023
0.310154
0.327166
0.343987
0.360546
0.37677
0.392585
0.407918
0.422695
0.436845
0.450296
0.462982
0.474836
0.485797
0.495807
0.504813
0.512766
0.519624
0.525349
0.529912
0.533288
0.535462
0.536424
0.536172
0.534713
0.532059
0.52823
0.523256
0.51717
0.510016
0.50184
0.492697
0.482645
0.47175
0.46008
0.447709
0.434711
0.421165
0.407149
0.392743
0.378029
0.363086
0.347995
0.332833
0.317674
0.302593
0.28766
0.272941
0.258499
0.244392
0.230675
0.217393
0.204586
0.192347
0.180761
0.16908
0.156602
0.242712
0.215325
0.192433
0.172406
0.15331
0.135214
0.118208
0.10224
0.0872538
0.0732064
0.0600544
0.047755
0.0362665
0.0255488
0.0155632
0.00627243
-0.00235887
-0.0103643
-0.0177755
-0.024622
-0.0309309
-0.0367273
-0.0420338
-0.0468708
-0.0512561
-0.0552048
-0.0587298
-0.0618413
-0.0645469
-0.0668518
-0.0687588
-0.0702684
-0.0713787
-0.0720861
-0.0723849
-0.0722676
-0.0717253
-0.0707472
-0.0693217
-0.0674357
-0.0650754
-0.0622263
-0.0588737
-0.0550026
-0.050598
-0.0456455
-0.0401312
-0.0340421
-0.0273663
-0.0200936
-0.0122153
-0.00372447
0.00538329
0.0151101
0.0254553
0.0364155
0.047984
0.0601507
0.0729022
0.0862209
0.100086
0.114471
0.129347
0.144682
0.160436
0.176568
0.193033
0.20978
0.226756
0.243902
0.261159
0.278462
0.295744
0.312935
0.329963
0.346755
0.363235
0.379328
0.394958
0.41005
0.424528
0.43832
0.451354
0.463562
0.474879
0.485244
0.4946
0.502896
0.510084
0.516126
0.520987
0.524641
0.527068
0.528256
0.528201
0.526905
0.52438
0.520644
0.515722
0.509649
0.502464
0.494216
0.484956
0.474743
0.463641
0.451719
0.439049
0.425708
0.411775
0.397327
0.382447
0.367216
0.351716
0.336027
0.320228
0.304397
0.288607
0.272931
0.257436
0.242188
0.227246
0.212667
0.198496
0.184776
0.171607
0.159081
0.146373
0.132718
0.250644
0.221812
0.197748
0.176738
0.15674
0.137824
0.120083
0.103458
0.0878859
0.0733172
0.0597023
0.0469919
0.0351384
0.0240955
0.0138186
0.00426511
-0.0046057
-0.0128323
-0.0204507
-0.0274945
-0.0339949
-0.0399803
-0.0454766
-0.0505067
-0.0550909
-0.0592467
-0.0629886
-0.0663282
-0.0692745
-0.0718336
-0.0740089
-0.0758014
-0.0772096
-0.0782298
-0.078856
-0.0790805
-0.0788935
-0.0782837
-0.0772383
-0.0757431
-0.073783
-0.0713423
-0.0684044
-0.0649529
-0.060971
-0.0564425
-0.0513515
-0.045683
-0.0394233
-0.0325598
-0.0250816
-0.0169801
-0.00824838
0.00111762
0.0111194
0.0217556
0.0330214
0.0449088
0.0574059
0.0704969
0.0841622
0.0983778
0.113116
0.128343
0.144024
0.160116
0.176575
0.19335
0.210389
0.227632
0.24502
0.262487
0.279965
0.297383
0.314668
0.331743
0.348533
0.36496
0.380944
0.396408
0.411273
0.425465
0.438908
0.45153
0.463264
0.474044
0.48381
0.492506
0.500082
0.506496
0.511709
0.515692
0.518421
0.519881
0.520064
0.518971
0.516609
0.512996
0.508154
0.502115
0.494919
0.486611
0.477242
0.466872
0.455562
0.443382
0.430405
0.416706
0.402366
0.387465
0.372085
0.356308
0.340218
0.323898
0.307427
0.290885
0.274348
0.257891
0.241582
0.22549