/*--------------------------------*- C++ -*----------------------------------*\
  =========                 |
  \\      /  F ield         | OpenFOAM: The Open Source CFD Toolbox
   \\    /   O peration     | Website:  https://openfoam.org
    \\  /    A nd           | Version:  9
     \\/     M anipulation  |
\*---------------------------------------------------------------------------*/
FoamFile
{
    format      ascii;
    class       surfaceScalarField;
    location    "1";
    object      phi;
}
// * * * * * * * * * * * * * * * * * * * * * * * * * * * * * * * * * * * * * //

dimensions      [0 3 -1 0 0 0 0];

internalField   nonuniform List<scalar> 
32512
(
2.74054e-10
-2.77443e-10
1.10221e-09
-8.28057e-10
2.13168e-09
-1.02943e-09
3.08597e-09
-9.54265e-10
3.79334e-09
-7.07444e-10
4.15027e-09
-3.56995e-10
4.09736e-09
5.28988e-11
3.60447e-09
4.92907e-10
2.66077e-09
9.43712e-10
1.26823e-09
1.39252e-09
-5.62594e-10
1.83076e-09
-2.81537e-09
2.25271e-09
-5.46999e-09
2.65459e-09
-8.50398e-09
3.034e-09
-1.18935e-08
3.38951e-09
-1.56139e-08
3.72041e-09
-1.96404e-08
4.02649e-09
-2.39484e-08
4.30795e-09
-2.85136e-08
4.56526e-09
-3.33127e-08
4.79909e-09
-3.83229e-08
5.01024e-09
-4.35225e-08
5.19956e-09
-4.88904e-08
5.36797e-09
-5.44069e-08
5.51642e-09
-6.00527e-08
5.64582e-09
-6.58098e-08
5.75709e-09
-7.16609e-08
5.85108e-09
-7.75895e-08
5.9286e-09
-8.35799e-08
5.99037e-09
-8.9617e-08
6.03709e-09
-9.56863e-08
6.06935e-09
-1.01774e-07
6.08769e-09
-1.07867e-07
6.09256e-09
-1.13951e-07
6.08437e-09
-1.20014e-07
6.06344e-09
-1.26044e-07
6.03003e-09
-1.32029e-07
5.98432e-09
-1.37955e-07
5.92648e-09
-1.43812e-07
5.85659e-09
-1.49587e-07
5.77471e-09
-1.55267e-07
5.68085e-09
-1.60842e-07
5.57498e-09
-1.66299e-07
5.45705e-09
-1.71626e-07
5.32703e-09
-1.76811e-07
5.18483e-09
-1.81842e-07
5.03039e-09
-1.86705e-07
4.86365e-09
-1.9139e-07
4.68456e-09
-1.95883e-07
4.49307e-09
-2.00172e-07
4.28918e-09
-2.04245e-07
4.07291e-09
-2.08089e-07
3.8443e-09
-2.11693e-07
3.60348e-09
-2.15043e-07
3.35058e-09
-2.18129e-07
3.08582e-09
-2.20939e-07
2.80946e-09
-2.2346e-07
2.52183e-09
-2.25684e-07
2.22331e-09
-2.27598e-07
1.91438e-09
-2.29194e-07
1.59557e-09
-2.30461e-07
1.26748e-09
-2.31392e-07
9.30807e-10
-2.31978e-07
5.8631e-10
-2.32213e-07
2.34833e-10
-2.3209e-07
-1.22709e-10
-2.31605e-07
-4.8532e-10
-2.30753e-07
-8.51936e-10
-2.29532e-07
-1.22142e-09
-2.27939e-07
-1.59257e-09
-2.25975e-07
-1.96412e-09
-2.2364e-07
-2.33472e-09
-2.20937e-07
-2.70302e-09
-2.1787e-07
-3.06757e-09
-2.14443e-07
-3.42691e-09
-2.10663e-07
-3.77954e-09
-2.06539e-07
-4.12393e-09
-2.02081e-07
-4.45856e-09
-1.97299e-07
-4.78186e-09
-1.92207e-07
-5.0923e-09
-1.86818e-07
-5.38835e-09
-1.8115e-07
-5.66851e-09
-1.75219e-07
-5.93131e-09
-1.69043e-07
-6.17532e-09
-1.62644e-07
-6.39917e-09
-1.56042e-07
-6.60158e-09
-1.49261e-07
-6.78131e-09
-1.42324e-07
-6.93723e-09
-1.35256e-07
-7.06832e-09
-1.28082e-07
-7.17363e-09
-1.2083e-07
-7.25236e-09
-1.13526e-07
-7.30382e-09
-1.06198e-07
-7.32744e-09
-9.88756e-08
-7.3228e-09
-9.15859e-08
-7.28964e-09
-8.43581e-08
-7.2278e-09
-7.72208e-08
-7.13732e-09
-7.02024e-08
-7.01838e-09
-6.33312e-08
-6.87129e-09
-5.66346e-08
-6.69655e-09
-5.01398e-08
-6.4948e-09
-4.3873e-08
-6.26683e-09
-3.78594e-08
-6.01359e-09
-3.21232e-08
-5.73621e-09
-2.66873e-08
-5.43593e-09
-2.15731e-08
-5.11418e-09
-1.68006e-08
-4.7725e-09
-1.2388e-08
-4.41262e-09
-8.35154e-09
-4.03643e-09
-4.70557e-09
-3.64597e-09
-1.46211e-09
-3.24347e-09
1.36924e-09
-2.83135e-09
3.78151e-09
-2.41226e-09
5.77064e-09
-1.98912e-09
7.33582e-09
-1.56518e-09
8.47989e-09
-1.14408e-09
9.20984e-09
-7.29961e-10
9.53746e-09
-3.27629e-10
9.48024e-09
5.72125e-11
9.06254e-09
4.17686e-10
8.31726e-09
7.45276e-10
7.28809e-09
1.02916e-09
6.03281e-09
1.25528e-09
4.6279e-09
1.40493e-09
3.17461e-09
1.45333e-09
1.80578e-09
1.36881e-09
6.93584e-10
1.1121e-09
4.92213e-11
6.44382e-10
4.947e-11
8.27257e-10
-1.10459e-09
2.46232e-09
-2.46289e-09
4.29533e-09
-2.86249e-09
5.84593e-09
-2.5049e-09
6.75798e-09
-1.61952e-09
6.78627e-09
-3.85346e-10
5.77283e-09
1.06627e-09
3.62486e-09
2.64088e-09
2.9725e-10
4.27135e-09
-4.22046e-09
5.91023e-09
-9.91383e-09
7.52405e-09
-1.67506e-08
9.08936e-09
-2.46858e-08
1.05899e-08
-3.36664e-08
1.20145e-08
-4.36331e-08
1.33562e-08
-5.45234e-08
1.46108e-08
-6.6273e-08
1.57761e-08
-7.88169e-08
1.68517e-08
-9.20902e-08
1.78386e-08
-1.06029e-07
1.87382e-08
-1.20572e-07
1.95529e-08
-1.35658e-07
2.02853e-08
-1.51228e-07
2.09385e-08
-1.67227e-07
2.15156e-08
-1.83601e-07
2.20196e-08
-2.00298e-07
2.24537e-08
-2.17268e-07
2.28208e-08
-2.34463e-07
2.31238e-08
-2.51838e-07
2.33654e-08
-2.69349e-07
2.3548e-08
-2.86953e-07
2.36737e-08
-3.0461e-07
2.37445e-08
-3.22279e-07
2.37622e-08
-3.39923e-07
2.37281e-08
-3.57503e-07
2.36436e-08
-3.74983e-07
2.35096e-08
-3.92326e-07
2.33269e-08
-4.09495e-07
2.30961e-08
-4.26456e-07
2.28176e-08
-4.43173e-07
2.24917e-08
-4.59611e-07
2.21184e-08
-4.75734e-07
2.16978e-08
-4.91506e-07
2.12299e-08
-5.06894e-07
2.07145e-08
-5.21861e-07
2.01514e-08
-5.36371e-07
1.95406e-08
-5.50389e-07
1.88818e-08
-5.63879e-07
1.8175e-08
-5.76806e-07
1.74201e-08
-5.89134e-07
1.66173e-08
-6.00828e-07
1.57667e-08
-6.11853e-07
1.48687e-08
-6.22173e-07
1.39238e-08
-6.31755e-07
1.29327e-08
-6.40566e-07
1.18963e-08
-6.48572e-07
1.08157e-08
-6.55742e-07
9.69232e-09
-6.62047e-07
8.52769e-09
-6.67456e-07
7.32372e-09
-6.71943e-07
6.08255e-09
-6.75482e-07
4.8066e-09
-6.7805e-07
3.49856e-09
-6.79625e-07
2.16145e-09
-6.80189e-07
7.98534e-10
-6.79725e-07
-5.86619e-10
-6.7822e-07
-1.99017e-09
-6.75664e-07
-3.408e-09
-6.7205e-07
-4.83575e-09
-6.67374e-07
-6.26877e-09
-6.61635e-07
-7.70222e-09
-6.54839e-07
-9.13103e-09
-6.46992e-07
-1.05499e-08
-6.38106e-07
-1.19534e-08
-6.28197e-07
-1.33361e-08
-6.17285e-07
-1.4692e-08
-6.05393e-07
-1.60156e-08
-5.92551e-07
-1.7301e-08
-5.7879e-07
-1.85423e-08
-5.64149e-07
-1.97337e-08
-5.48668e-07
-2.08695e-08
-5.32392e-07
-2.1944e-08
-5.15372e-07
-2.29516e-08
-4.9766e-07
-2.38871e-08
-4.79314e-07
-2.47452e-08
-4.60394e-07
-2.55212e-08
-4.40965e-07
-2.62104e-08
-4.21094e-07
-2.68085e-08
-4.0085e-07
-2.73118e-08
-3.80307e-07
-2.77167e-08
-3.59539e-07
-2.80203e-08
-3.38623e-07
-2.82199e-08
-3.17637e-07
-2.83134e-08
-2.96661e-07
-2.82994e-08
-2.75773e-07
-2.81768e-08
-2.55056e-07
-2.79452e-08
-2.34589e-07
-2.76047e-08
-2.14451e-07
-2.71559e-08
-1.94722e-07
-2.66003e-08
-1.75479e-07
-2.59396e-08
-1.56797e-07
-2.51764e-08
-1.38751e-07
-2.43138e-08
-1.21409e-07
-2.33554e-08
-1.04839e-07
-2.23055e-08
-8.91062e-08
-2.11691e-08
-7.42688e-08
-1.99516e-08
-6.03822e-08
-1.86591e-08
-4.74965e-08
-1.72982e-08
-3.56565e-08
-1.58764e-08
-2.49008e-08
-1.44017e-08
-1.52616e-08
-1.28827e-08
-6.76397e-09
-1.1329e-08
5.74768e-10
-9.75099e-09
6.74588e-09
-8.16025e-09
1.17501e-08
-6.56946e-09
1.5599e-08
-4.99292e-09
1.83158e-08
-3.4468e-09
1.99379e-08
-1.94971e-09
2.05185e-08
-5.23366e-10
2.01297e-08
8.06463e-10
1.88663e-08
2.00873e-09
1.68501e-08
3.0454e-09
1.4236e-08
3.86945e-09
1.12183e-08
4.42257e-09
8.03801e-09
4.63356e-09
4.98684e-09
4.42003e-09
2.40295e-09
3.69597e-09
6.42577e-10
2.40464e-09
6.92064e-10
1.03367e-09
-2.13822e-09
2.87244e-09
-4.30171e-09
4.72192e-09
-4.71209e-09
5.99384e-09
-3.77691e-09
6.24002e-09
-1.86571e-09
5.13541e-09
7.19275e-10
2.45807e-09
3.7436e-09
-1.93147e-09
7.03041e-09
-8.10842e-09
1.04483e-08
-1.60985e-08
1.39003e-08
-2.58902e-08
1.73157e-08
-3.7444e-08
2.06431e-08
-5.07e-08
2.38459e-08
-6.55835e-08
2.68981e-08
-8.20097e-08
2.97824e-08
-9.98868e-08
3.24878e-08
-1.19119e-07
3.50081e-08
-1.39608e-07
3.73407e-08
-1.61255e-07
3.94858e-08
-1.83962e-07
4.14457e-08
-2.07634e-07
4.32242e-08
-2.32175e-07
4.48262e-08
-2.57493e-07
4.62573e-08
-2.83501e-07
4.75233e-08
-3.10112e-07
4.86305e-08
-3.37244e-07
4.9585e-08
-3.64816e-07
5.03929e-08
-3.92752e-07
5.10598e-08
-4.20977e-07
5.15913e-08
-4.49422e-07
5.19923e-08
-4.78015e-07
5.22673e-08
-5.06692e-07
5.24206e-08
-5.35385e-07
5.24556e-08
-5.64032e-07
5.23756e-08
-5.92572e-07
5.2183e-08
-6.20942e-07
5.18801e-08
-6.49084e-07
5.14687e-08
-6.76938e-07
5.09499e-08
-7.04445e-07
5.03249e-08
-7.31548e-07
4.95943e-08
-7.58188e-07
4.87584e-08
-7.84307e-07
4.78174e-08
-8.09849e-07
4.67713e-08
-8.34754e-07
4.562e-08
-8.58966e-07
4.43633e-08
-8.82427e-07
4.30011e-08
-9.05078e-07
4.15333e-08
-9.26863e-07
3.99598e-08
-9.47723e-07
3.82807e-08
-9.67603e-07
3.64966e-08
-9.86444e-07
3.46079e-08
-1.00419e-06
3.26157e-08
-1.02079e-06
3.05212e-08
-1.03618e-06
2.83262e-08
-1.05032e-06
2.60328e-08
-1.06315e-06
2.36436e-08
-1.07462e-06
2.11618e-08
-1.08468e-06
1.8591e-08
-1.09329e-06
1.59355e-08
-1.10041e-06
1.32e-08
-1.10599e-06
1.039e-08
-1.11e-06
7.51145e-09
-1.11241e-06
4.57104e-09
-1.11319e-06
1.57597e-09
-1.11231e-06
-1.46591e-09
-1.10976e-06
-4.54619e-09
-1.10551e-06
-7.65586e-09
-1.09956e-06
-1.07854e-08
-1.0919e-06
-1.39246e-08
-1.08254e-06
-1.7063e-08
-1.07148e-06
-2.01896e-08
-1.05874e-06
-2.3293e-08
-1.04433e-06
-2.63613e-08
-1.02829e-06
-2.93825e-08
-1.01063e-06
-3.23442e-08
-9.91416e-07
-3.52342e-08
-9.70677e-07
-3.80396e-08
-9.48471e-07
-4.07481e-08
-9.24858e-07
-4.3347e-08
-8.99904e-07
-4.58239e-08
-8.73681e-07
-4.81668e-08
-8.46269e-07
-5.03636e-08
-8.17753e-07
-5.2403e-08
-7.88224e-07
-5.42739e-08
-7.5778e-07
-5.59658e-08
-7.26521e-07
-5.74691e-08
-6.94555e-07
-5.87745e-08
-6.61993e-07
-5.98739e-08
-6.2895e-07
-6.07597e-08
-5.95545e-07
-6.14256e-08
-5.61899e-07
-6.1866e-08
-5.28135e-07
-6.20766e-08
-4.94381e-07
-6.20541e-08
-4.60761e-07
-6.17965e-08
-4.27404e-07
-6.13027e-08
-3.94435e-07
-6.05731e-08
-3.61982e-07
-5.96093e-08
-3.30168e-07
-5.84142e-08
-2.99115e-07
-5.6992e-08
-2.68944e-07
-5.53481e-08
-2.39768e-07
-5.34893e-08
-2.117e-07
-5.14237e-08
-1.84845e-07
-4.91606e-08
-1.59303e-07
-4.67109e-08
-1.35168e-07
-4.40864e-08
-1.12527e-07
-4.13007e-08
-9.14566e-08
-3.83684e-08
-7.20274e-08
-3.53056e-08
-5.4299e-08
-3.21302e-08
-3.83205e-08
-2.88612e-08
-2.41297e-08
-2.55197e-08
-1.1752e-08
-2.21287e-08
-1.19863e-09
-1.87136e-08
7.53428e-09
-1.53024e-08
1.44676e-08
-1.19262e-08
1.96411e-08
-8.62033e-09
2.31162e-08
-5.42484e-09
2.49789e-08
-2.38602e-09
2.53433e-08
4.42162e-10
2.43559e-08
2.99605e-09
2.22013e-08
5.19989e-09
1.91076e-08
6.9632e-09
1.53518e-08
8.17838e-09
1.1265e-08
8.72043e-09
7.23309e-09
8.45194e-09
3.6912e-09
7.23785e-09
1.10804e-09
4.98778e-09
1.8e-09
9.64935e-10
-3.10313e-09
2.52938e-09
-5.8662e-09
3.80787e-09
-5.99067e-09
4.15311e-09
-4.12228e-09
3.07225e-09
-7.84911e-10
2.00444e-10
3.5911e-09
-4.71909e-09
8.6632e-09
-1.1854e-08
1.41654e-08
-2.12996e-08
1.98937e-08
-3.30931e-08
2.56937e-08
-4.72264e-08
3.1449e-08
-6.36563e-08
3.7073e-08
-8.23128e-08
4.25024e-08
-1.03106e-07
4.76913e-08
-1.25931e-07
5.26079e-08
-1.50675e-07
5.7231e-08
-1.77214e-07
6.15478e-08
-2.05425e-07
6.55517e-08
-2.35181e-07
6.92412e-08
-2.66353e-07
7.26184e-08
-2.98817e-07
7.56882e-08
-3.32449e-07
7.84576e-08
-3.67126e-07
8.09346e-08
-4.02732e-07
8.31286e-08
-4.3915e-07
8.50491e-08
-4.76271e-07
8.67058e-08
-5.13987e-07
8.81085e-08
-5.52193e-07
8.92662e-08
-5.9079e-07
9.0188e-08
-6.29679e-07
9.0882e-08
-6.68768e-07
9.13556e-08
-7.07963e-07
9.16157e-08
-7.47176e-07
9.16683e-08
-7.86319e-07
9.15186e-08
-8.25307e-07
9.1171e-08
-8.64056e-07
9.06292e-08
-9.02483e-07
8.98963e-08
-9.40508e-07
8.89746e-08
-9.78049e-07
8.78658e-08
-1.01503e-06
8.65712e-08
-1.05136e-06
8.50916e-08
-1.08697e-06
8.34276e-08
-1.12178e-06
8.15792e-08
-1.1557e-06
7.95466e-08
-1.18867e-06
7.73297e-08
-1.2206e-06
7.49285e-08
-1.25141e-06
7.2343e-08
-1.28102e-06
6.95735e-08
-1.30936e-06
6.66205e-08
-1.33635e-06
6.34851e-08
-1.36191e-06
6.01685e-08
-1.38597e-06
5.66728e-08
-1.40845e-06
5.30004e-08
-1.42927e-06
4.91545e-08
-1.44838e-06
4.51393e-08
-1.4657e-06
4.09595e-08
-1.48116e-06
3.66207e-08
-1.49469e-06
3.21295e-08
-1.50625e-06
2.74935e-08
-1.51577e-06
2.27212e-08
-1.52321e-06
1.78221e-08
-1.5285e-06
1.28068e-08
-1.53162e-06
7.6869e-09
-1.53252e-06
2.47498e-09
-1.53117e-06
-2.81531e-09
-1.52754e-06
-8.16933e-09
-1.52163e-06
-1.35715e-08
-1.51341e-06
-1.90052e-08
-1.50288e-06
-2.44531e-08
-1.49005e-06
-2.9897e-08
-1.47492e-06
-3.53179e-08
-1.45751e-06
-4.06961e-08
-1.43786e-06
-4.60115e-08
-1.416e-06
-5.12433e-08
-1.39198e-06
-5.63705e-08
-1.36584e-06
-6.13716e-08
-1.33765e-06
-6.62252e-08
-1.30749e-06
-7.09099e-08
-1.27543e-06
-7.54041e-08
-1.24157e-06
-7.96867e-08
-1.206e-06
-8.3737e-08
-1.16883e-06
-8.75348e-08
-1.13017e-06
-9.10604e-08
-1.09015e-06
-9.42952e-08
-1.0489e-06
-9.72214e-08
-1.00654e-06
-9.98223e-08
-9.63235e-07
-1.02082e-07
-9.19121e-07
-1.03988e-07
-8.74355e-07
-1.05526e-07
-8.29096e-07
-1.06685e-07
-7.83504e-07
-1.07457e-07
-7.37747e-07
-1.07834e-07
-6.9199e-07
-1.07811e-07
-6.46403e-07
-1.07383e-07
-6.01155e-07
-1.0655e-07
-5.56416e-07
-1.05313e-07
-5.12352e-07
-1.03673e-07
-4.6913e-07
-1.01636e-07
-4.26912e-07
-9.921e-08
-3.85857e-07
-9.64035e-08
-3.46117e-07
-9.32286e-08
-3.07842e-07
-8.96992e-08
-2.7117e-07
-8.58318e-08
-2.36237e-07
-8.16447e-08
-2.03164e-07
-7.7159e-08
-1.72067e-07
-7.23979e-08
-1.43048e-07
-6.73868e-08
-1.162e-07
-6.21541e-08
-9.15998e-08
-5.67302e-08
-6.93122e-08
-5.11487e-08
-4.93856e-08
-4.54462e-08
-3.18517e-08
-3.96626e-08
-1.67236e-08
-3.38418e-08
-3.99389e-09
-2.80321e-08
6.36702e-09
-2.22871e-08
1.44137e-08
-1.6667e-08
2.02286e-08
-1.12397e-08
2.39249e-08
-6.08236e-09
2.5651e-08
-1.28393e-09
2.55944e-08
3.05267e-09
2.39866e-08
6.80769e-09
2.11081e-08
9.84178e-09
1.72925e-08
1.1994e-08
1.29303e-08
1.30825e-08
8.47117e-09
1.2911e-08
4.42427e-09
1.12848e-08
1.3652e-09
8.0469e-09
3.16517e-09
7.23928e-10
-3.82713e-09
1.65405e-09
-6.79633e-09
1.90484e-09
-6.24148e-09
8.16936e-10
-3.03445e-09
-2.11372e-09
2.14569e-09
-7.26418e-09
8.74157e-09
-1.49042e-08
1.63033e-08
-2.52136e-08
2.44747e-08
-3.82968e-08
3.29769e-08
-5.41966e-08
4.15935e-08
-7.2906e-08
5.01584e-08
-9.43781e-08
5.85451e-08
-1.18535e-07
6.66592e-08
-1.45274e-07
7.44308e-08
-1.74477e-07
8.18103e-08
-2.06009e-07
8.87635e-08
-2.3973e-07
9.52685e-08
-2.75492e-07
1.01313e-07
-3.13143e-07
1.06892e-07
-3.52532e-07
1.12007e-07
-3.93507e-07
1.16663e-07
-4.35919e-07
1.20869e-07
-4.79619e-07
1.24635e-07
-5.24464e-07
1.27974e-07
-5.70313e-07
1.30898e-07
-6.17029e-07
1.33422e-07
-6.64479e-07
1.35559e-07
-7.12535e-07
1.37322e-07
-7.6107e-07
1.38723e-07
-8.09964e-07
1.39776e-07
-8.59098e-07
1.40489e-07
-9.08357e-07
1.40874e-07
-9.57628e-07
1.4094e-07
-1.0068e-06
1.40692e-07
-1.05577e-06
1.4014e-07
-1.10443e-06
1.39287e-07
-1.15267e-06
1.38139e-07
-1.20039e-06
1.36698e-07
-1.2475e-06
1.34969e-07
-1.29388e-06
1.32953e-07
-1.33944e-06
1.30651e-07
-1.38407e-06
1.28064e-07
-1.42769e-06
1.25194e-07
-1.47018e-06
1.22039e-07
-1.51145e-06
1.18602e-07
-1.55141e-06
1.14881e-07
-1.58994e-06
1.10878e-07
-1.62696e-06
1.06593e-07
-1.66237e-06
1.02027e-07
-1.69606e-06
9.71826e-08
-1.72796e-06
9.2062e-08
-1.75795e-06
8.66684e-08
-1.78596e-06
8.10064e-08
-1.81189e-06
7.5081e-08
-1.83565e-06
6.88988e-08
-1.85715e-06
6.24674e-08
-1.87633e-06
5.57959e-08
-1.89309e-06
4.88946e-08
-1.90738e-06
4.17752e-08
-1.91911e-06
3.4451e-08
-1.92822e-06
2.69368e-08
-1.93466e-06
1.92489e-08
-1.93838e-06
1.1405e-08
-1.93933e-06
3.42465e-09
-1.93747e-06
-4.67138e-09
-1.93278e-06
-1.28607e-08
-1.92523e-06
-2.11196e-08
-1.91482e-06
-2.94228e-08
-1.90153e-06
-3.77439e-08
-1.88537e-06
-4.60553e-08
-1.86636e-06
-5.43283e-08
-1.84452e-06
-6.2533e-08
-1.81989e-06
-7.06389e-08
-1.79252e-06
-7.86147e-08
-1.76246e-06
-8.64287e-08
-1.72979e-06
-9.40486e-08
-1.69457e-06
-1.01442e-07
-1.6569e-06
-1.08577e-07
-1.61689e-06
-1.1542e-07
-1.57463e-06
-1.21941e-07
-1.53026e-06
-1.28108e-07
-1.48391e-06
-1.3389e-07
-1.43571e-06
-1.39258e-07
-1.38582e-06
-1.44185e-07
-1.3344e-06
-1.48643e-07
-1.28161e-06
-1.52608e-07
-1.22764e-06
-1.56056e-07
-1.17266e-06
-1.58966e-07
-1.11687e-06
-1.61319e-07
-1.06045e-06
-1.631e-07
-1.00362e-06
-1.64294e-07
-9.46559e-07
-1.6489e-07
-8.89489e-07
-1.64881e-07
-8.32612e-07
-1.6426e-07
-7.76136e-07
-1.63026e-07
-7.20268e-07
-1.61181e-07
-6.65214e-07
-1.58727e-07
-6.11176e-07
-1.55674e-07
-5.58354e-07
-1.52032e-07
-5.06942e-07
-1.47816e-07
-4.57128e-07
-1.43043e-07
-4.09092e-07
-1.37735e-07
-3.63007e-07
-1.31917e-07
-3.19035e-07
-1.25617e-07
-2.77327e-07
-1.18867e-07
-2.38023e-07
-1.11702e-07
-2.01248e-07
-1.04162e-07
-1.67114e-07
-9.62886e-08
-1.35714e-07
-8.81295e-08
-1.07127e-07
-7.97356e-08
-8.14112e-08
-7.11624e-08
-5.8603e-08
-6.24708e-08
-3.87175e-08
-5.37273e-08
-2.17447e-08
-4.50049e-08
-7.64748e-09
-3.63843e-08
3.64074e-09
-2.79553e-08
1.22192e-08
-1.98182e-08
1.82231e-08
-1.20862e-08
2.18269e-08
-4.88776e-09
2.32489e-08
1.63079e-09
2.27545e-08
7.30211e-09
2.06611e-08
1.19352e-08
1.73412e-08
1.53138e-08
1.32269e-08
1.71968e-08
8.81393e-09
1.73239e-08
4.67038e-09
1.54284e-08
1.45655e-09
1.12607e-08
4.62175e-09
3.76011e-10
-4.20321e-09
4.15775e-10
-6.83616e-09
-7.05032e-10
-5.12066e-09
-3.61794e-09
-1.21529e-10
-8.81067e-09
7.33843e-09
-1.66511e-08
1.6582e-08
-2.74046e-08
2.70568e-08
-4.12493e-08
3.83193e-08
-5.8289e-08
5.00165e-08
-7.85653e-08
6.18697e-08
-1.02068e-07
7.3661e-08
-1.28745e-07
8.52219e-08
-1.5851e-07
9.6424e-08
-1.9125e-07
1.07171e-07
-2.26833e-07
1.17393e-07
-2.6511e-07
1.27041e-07
-3.05922e-07
1.36081e-07
-3.49103e-07
1.44494e-07
-3.9448e-07
1.5227e-07
-4.41881e-07
1.59409e-07
-4.91132e-07
1.65915e-07
-5.42061e-07
1.71797e-07
-5.94496e-07
1.7707e-07
-6.48269e-07
1.81747e-07
-7.03218e-07
1.85847e-07
-7.59181e-07
1.89385e-07
-8.16003e-07
1.9238e-07
-8.7353e-07
1.94849e-07
-9.31616e-07
1.96809e-07
-9.90116e-07
1.98275e-07
-1.04889e-06
1.99262e-07
-1.1078e-06
1.99783e-07
-1.16671e-06
1.9985e-07
-1.22549e-06
1.99473e-07
-1.28401e-06
1.98662e-07
-1.34215e-06
1.97423e-07
-1.39977e-06
1.95764e-07
-1.45676e-06
1.93689e-07
-1.513e-06
1.91203e-07
-1.56835e-06
1.88309e-07
-1.62271e-06
1.85008e-07
-1.67595e-06
1.81303e-07
-1.72795e-06
1.77194e-07
-1.77859e-06
1.72683e-07
-1.82776e-06
1.67771e-07
-1.87534e-06
1.62458e-07
-1.92121e-06
1.56745e-07
-1.96525e-06
1.50634e-07
-2.00735e-06
1.44128e-07
-2.04739e-06
1.37229e-07
-2.08527e-06
1.29941e-07
-2.12088e-06
1.22271e-07
-2.15409e-06
1.14223e-07
-2.18482e-06
1.05807e-07
-2.21295e-06
9.70311e-08
-2.23839e-06
8.79076e-08
-2.26104e-06
7.84492e-08
-2.28082e-06
6.86708e-08
-2.29764e-06
5.85894e-08
-2.31141e-06
4.8224e-08
-2.32207e-06
3.75956e-08
-2.32955e-06
2.67274e-08
-2.33379e-06
1.56446e-08
-2.33474e-06
4.37467e-09
-2.33235e-06
-7.05301e-09
-2.32661e-06
-1.86069e-08
-2.31747e-06
-3.02537e-08
-2.30494e-06
-4.19579e-08
-2.289e-06
-5.36826e-08
-2.26967e-06
-6.5389e-08
-2.24696e-06
-7.7037e-08
-2.22091e-06
-8.8585e-08
-2.19155e-06
-9.99904e-08
-2.15896e-06
-1.1121e-07
-2.12319e-06
-1.22198e-07
-2.08433e-06
-1.32912e-07
-2.04246e-06
-1.43305e-07
-1.99771e-06
-1.53332e-07
-1.95018e-06
-1.6295e-07
-1.90001e-06
-1.72113e-07
-1.84733e-06
-1.80779e-07
-1.79232e-06
-1.88906e-07
-1.73512e-06
-1.96452e-07
-1.67593e-06
-2.03379e-07
-1.61492e-06
-2.0965e-07
-1.5523e-06
-2.1523e-07
-1.48827e-06
-2.20087e-07
-1.42304e-06
-2.24193e-07
-1.35684e-06
-2.27521e-07
-1.28989e-06
-2.30048e-07
-1.22243e-06
-2.31756e-07
-1.15469e-06
-2.32629e-07
-1.08692e-06
-2.32657e-07
-1.01935e-06
-2.31831e-07
-9.52223e-07
-2.3015e-07
-8.85789e-07
-2.27615e-07
-8.20284e-07
-2.24232e-07
-7.55946e-07
-2.20012e-07
-6.93007e-07
-2.14971e-07
-6.31693e-07
-2.0913e-07
-5.72224e-07
-2.02512e-07
-5.1481e-07
-1.95149e-07
-4.59651e-07
-1.87075e-07
-4.06938e-07
-1.7833e-07
-3.56846e-07
-1.68959e-07
-3.09537e-07
-1.59011e-07
-2.65159e-07
-1.48541e-07
-2.23838e-07
-1.37609e-07
-1.85687e-07
-1.26281e-07
-1.50793e-07
-1.14629e-07
-1.19225e-07
-1.02731e-07
-9.10254e-08
-9.06707e-08
-6.62106e-08
-7.85421e-08
-4.47693e-08
-6.64461e-08
-2.66593e-08
-5.44943e-08
-1.18047e-08
-4.28098e-08
-9.38083e-11
-3.15291e-08
8.62474e-09
-2.08048e-08
1.45448e-08
-1.08078e-08
1.79063e-08
-1.73073e-09
1.89988e-08
6.20961e-09
1.8165e-08
1.27691e-08
1.58043e-08
1.76745e-08
1.23776e-08
2.06234e-08
8.41438e-09
2.12871e-08
4.52472e-09
1.93181e-08
1.42427e-09
1.43612e-08
6.04606e-09
-3.75058e-11
-4.16572e-09
-1.06393e-09
-5.8098e-09
-3.80739e-09
-2.3772e-09
-8.84223e-09
4.91337e-09
-1.66178e-08
1.5114e-08
-2.74752e-08
2.74393e-08
-4.16613e-08
4.12428e-08
-5.93409e-08
5.59988e-08
-8.06079e-08
7.12836e-08
-1.05496e-07
8.67576e-08
-1.33987e-07
1.02152e-07
-1.6602e-07
1.17255e-07
-2.015e-07
1.31904e-07
-2.40305e-07
1.45975e-07
-2.82287e-07
1.59376e-07
-3.27286e-07
1.7204e-07
-3.75127e-07
1.83921e-07
-4.25626e-07
1.94993e-07
-4.78595e-07
2.05239e-07
-5.33841e-07
2.14655e-07
-5.91171e-07
2.23245e-07
-6.50392e-07
2.31018e-07
-7.11313e-07
2.37991e-07
-7.73745e-07
2.4418e-07
-8.37504e-07
2.49605e-07
-9.02406e-07
2.54288e-07
-9.68276e-07
2.5825e-07
-1.03494e-06
2.61513e-07
-1.10223e-06
2.64097e-07
-1.16997e-06
2.66022e-07
-1.23802e-06
2.67307e-07
-1.3062e-06
2.67967e-07
-1.37437e-06
2.68019e-07
-1.44237e-06
2.67475e-07
-1.51006e-06
2.66348e-07
-1.57728e-06
2.64646e-07
-1.6439e-06
2.62379e-07
-1.70976e-06
2.59554e-07
-1.77473e-06
2.56175e-07
-1.83867e-06
2.52247e-07
-1.90144e-06
2.47773e-07
-1.96289e-06
2.42756e-07
-2.0229e-06
2.37199e-07
-2.08131e-06
2.31101e-07
-2.13801e-06
2.24466e-07
-2.19285e-06
2.17295e-07
-2.24569e-06
2.09589e-07
-2.29641e-06
2.01353e-07
-2.34487e-06
1.92588e-07
-2.39094e-06
1.83301e-07
-2.4345e-06
1.73497e-07
-2.47541e-06
1.63184e-07
-2.51356e-06
1.52371e-07
-2.54882e-06
1.41069e-07
-2.58108e-06
1.29292e-07
-2.61023e-06
1.17055e-07
-2.63616e-06
1.04375e-07
-2.65876e-06
9.12749e-08
-2.67795e-06
7.77758e-08
-2.69363e-06
6.39037e-08
-2.70572e-06
4.96871e-08
-2.71415e-06
3.5157e-08
-2.71885e-06
2.03473e-08
-2.71977e-06
5.29457e-09
-2.71686e-06
-9.96194e-09
-2.71009e-06
-2.53803e-08
-2.69942e-06
-4.09161e-08
-2.68486e-06
-5.65225e-08
-2.66639e-06
-7.21502e-08
-2.64403e-06
-8.77482e-08
-2.61781e-06
-1.03263e-07
-2.58775e-06
-1.18641e-07
-2.55392e-06
-1.33824e-07
-2.51637e-06
-1.48756e-07
-2.47519e-06
-1.63377e-07
-2.43047e-06
-1.7763e-07
-2.38232e-06
-1.91455e-07
-2.33086e-06
-2.04792e-07
-2.27623e-06
-2.17584e-07
-2.21857e-06
-2.29771e-07
-2.15806e-06
-2.41297e-07
-2.09485e-06
-2.52107e-07
-2.02916e-06
-2.62148e-07
-1.96117e-06
-2.71368e-07
-1.8911e-06
-2.79719e-07
-1.81918e-06
-2.87155e-07
-1.74563e-06
-2.93635e-07
-1.6707e-06
-2.99121e-07
-1.59464e-06
-3.03579e-07
-1.51771e-06
-3.06978e-07
-1.44017e-06
-3.09294e-07
-1.36229e-06
-3.10508e-07
-1.28435e-06
-3.10604e-07
-1.2066e-06
-3.09574e-07
-1.12934e-06
-3.07413e-07
-1.05283e-06
-3.04125e-07
-9.77343e-07
-2.99718e-07
-9.03149e-07
-2.94206e-07
-8.30511e-07
-2.8761e-07
-7.59683e-07
-2.79957e-07
-6.90914e-07
-2.71281e-07
-6.24443e-07
-2.6162e-07
-5.60496e-07
-2.51022e-07
-4.99287e-07
-2.39539e-07
-4.41016e-07
-2.2723e-07
-3.85865e-07
-2.14162e-07
-3.33999e-07
-2.00406e-07
-2.85565e-07
-1.86043e-07
-2.40686e-07
-1.7116e-07
-1.99464e-07
-1.55851e-07
-1.61975e-07
-1.4022e-07
-1.28268e-07
-1.24378e-07
-9.83621e-08
-1.08448e-07
-7.22466e-08
-9.25617e-08
-4.9876e-08
-7.6865e-08
-3.11687e-08
-6.1517e-08
-1.60043e-08
-4.66935e-08
-4.22057e-09
-3.25886e-08
4.38949e-09
-1.9418e-08
1.00806e-08
-7.42187e-09
1.31583e-08
3.13202e-09
1.39818e-08
1.19456e-08
1.29685e-08
1.86878e-08
1.05984e-08
2.29935e-08
7.42258e-09
2.4463e-08
4.07622e-09
2.26644e-08
1.302e-09
1.71354e-08
7.34809e-09
-4.89998e-10
-3.67571e-09
-2.69982e-09
-3.59998e-09
-7.24424e-09
2.1672e-09
-1.4621e-08
1.22902e-08
-2.52244e-08
2.57174e-08
-3.93548e-08
4.15697e-08
-5.72287e-08
5.91165e-08
-7.89877e-08
7.77578e-08
-1.04708e-07
9.70037e-08
-1.34408e-07
1.16458e-07
-1.68057e-07
1.35801e-07
-2.05583e-07
1.54782e-07
-2.4688e-07
1.73201e-07
-2.91813e-07
1.90908e-07
-3.40223e-07
2.07786e-07
-3.91935e-07
2.23752e-07
-4.46761e-07
2.38747e-07
-5.04502e-07
2.52734e-07
-5.64953e-07
2.6569e-07
-6.27906e-07
2.77607e-07
-6.93149e-07
2.88488e-07
-7.60471e-07
2.98341e-07
-8.29664e-07
3.07183e-07
-9.00519e-07
3.15035e-07
-9.72833e-07
3.21918e-07
-1.0464e-06
3.27859e-07
-1.12103e-06
3.32881e-07
-1.19653e-06
3.37012e-07
-1.27271e-06
3.40275e-07
-1.34938e-06
3.42694e-07
-1.42637e-06
3.44292e-07
-1.50349e-06
3.45088e-07
-1.58057e-06
3.45102e-07
-1.65744e-06
3.44349e-07
-1.73394e-06
3.42844e-07
-1.80989e-06
3.406e-07
-1.88514e-06
3.37626e-07
-1.95952e-06
3.33933e-07
-2.03287e-06
3.29525e-07
-2.10503e-06
3.2441e-07
-2.17585e-06
3.18592e-07
-2.24517e-06
3.12075e-07
-2.31283e-06
3.04861e-07
-2.37868e-06
2.96952e-07
-2.44257e-06
2.88353e-07
-2.50434e-06
2.79065e-07
-2.56385e-06
2.69093e-07
-2.62093e-06
2.58439e-07
-2.67546e-06
2.47111e-07
-2.72727e-06
2.35113e-07
-2.77623e-06
2.22456e-07
-2.82219e-06
2.09149e-07
-2.86503e-06
1.95205e-07
-2.9046e-06
1.80639e-07
-2.94077e-06
1.65469e-07
-2.97343e-06
1.49715e-07
-3.00246e-06
1.33401e-07
-3.02774e-06
1.16554e-07
-3.04916e-06
9.92024e-08
-3.06664e-06
8.13807e-08
-3.08008e-06
6.31252e-08
-3.0894e-06
4.44758e-08
-3.09453e-06
2.54762e-08
-3.09541e-06
6.17303e-09
-3.09198e-06
-1.33833e-08
-3.08423e-06
-3.31392e-08
-3.0721e-06
-5.30381e-08
-3.05561e-06
-7.30202e-08
-3.03473e-06
-9.30231e-08
-3.0095e-06
-1.12982e-07
-2.97993e-06
-1.32828e-07
-2.94608e-06
-1.52494e-07
-2.908e-06
-1.71906e-07
-2.86576e-06
-1.90993e-07
-2.81946e-06
-2.09681e-07
-2.76919e-06
-2.27894e-07
-2.71509e-06
-2.45559e-07
-2.65728e-06
-2.626e-07
-2.59592e-06
-2.78943e-07
-2.53118e-06
-2.94516e-07
-2.46323e-06
-3.09245e-07
-2.39227e-06
-3.23062e-07
-2.31852e-06
-3.35899e-07
-2.2422e-06
-3.47692e-07
-2.16354e-06
-3.5838e-07
-2.08279e-06
-3.67906e-07
-2.00021e-06
-3.76216e-07
-1.91607e-06
-3.83263e-07
-1.83064e-06
-3.89005e-07
-1.74421e-06
-3.93403e-07
-1.65708e-06
-3.96427e-07
-1.56954e-06
-3.98051e-07
-1.48189e-06
-3.98257e-07
-1.39443e-06
-3.97034e-07
-1.30746e-06
-3.94377e-07
-1.2213e-06
-3.9029e-07
-1.13623e-06
-3.84784e-07
-1.05256e-06
-3.77876e-07
-9.70576e-07
-3.69594e-07
-8.90563e-07
-3.59971e-07
-8.12794e-07
-3.4905e-07
-7.37533e-07
-3.36881e-07
-6.65031e-07
-3.23524e-07
-5.95526e-07
-3.09045e-07
-5.29237e-07
-2.93519e-07
-4.66367e-07
-2.77031e-07
-4.07101e-07
-2.59673e-07
-3.51599e-07
-2.41545e-07
-2.99999e-07
-2.2276e-07
-2.52414e-07
-2.03436e-07
-2.08929e-07
-1.83705e-07
-1.696e-07
-1.63707e-07
-1.34451e-07
-1.43597e-07
-1.03473e-07
-1.2354e-07
-7.6619e-08
-1.03719e-07
-5.38058e-08
-8.43302e-08
-3.49077e-08
-6.55914e-08
-1.9756e-08
-4.77402e-08
-8.13595e-09
-3.10381e-08
2.16064e-10
-1.5774e-08
5.61505e-09
-2.26699e-09
8.43031e-09
9.13034e-09
9.08913e-09
1.8029e-08
8.08211e-09
2.40006e-08
5.97088e-09
2.65743e-08
3.40001e-09
2.52352e-08
1.1157e-09
1.94197e-08
8.46379e-09
-9.6444e-10
-2.71125e-09
-4.43303e-09
-1.31364e-10
-1.0901e-08
8.63513e-09
-2.07782e-08
2.21673e-08
-3.43921e-08
3.93312e-08
-5.19917e-08
5.91692e-08
-7.37534e-08
8.08782e-08
-9.97874e-08
1.03792e-07
-1.30145e-07
1.27361e-07
-1.64823e-07
1.51136e-07
-2.03775e-07
1.74753e-07
-2.46914e-07
1.9792e-07
-2.94117e-07
2.20405e-07
-3.45238e-07
2.42029e-07
-4.00105e-07
2.62653e-07
-4.5853e-07
2.82177e-07
-5.2031e-07
3.00527e-07
-5.85232e-07
3.17656e-07
-6.53077e-07
3.33535e-07
-7.2362e-07
3.48151e-07
-7.96636e-07
3.61503e-07
-8.71896e-07
3.73601e-07
-9.49174e-07
3.84462e-07
-1.02825e-06
3.94107e-07
-1.10889e-06
4.02563e-07
-1.19089e-06
4.09857e-07
-1.27403e-06
4.16019e-07
-1.35809e-06
4.21078e-07
-1.44288e-06
4.25063e-07
-1.52819e-06
4.28001e-07
-1.61381e-06
4.29918e-07
-1.69957e-06
4.30839e-07
-1.78525e-06
4.30785e-07
-1.87068e-06
4.29777e-07
-1.95566e-06
4.2783e-07
-2.04002e-06
4.2496e-07
-2.12358e-06
4.2118e-07
-2.20615e-06
4.16501e-07
-2.28755e-06
4.1093e-07
-2.36762e-06
4.04476e-07
-2.44617e-06
3.97145e-07
-2.52304e-06
3.88941e-07
-2.59804e-06
3.79868e-07
-2.67102e-06
3.6993e-07
-2.7418e-06
3.59132e-07
-2.81021e-06
3.47477e-07
-2.87609e-06
3.34971e-07
-2.93927e-06
3.2162e-07
-2.99959e-06
3.07431e-07
-3.05689e-06
2.92413e-07
-3.11101e-06
2.76578e-07
-3.1618e-06
2.59939e-07
-3.20911e-06
2.42514e-07
-3.25279e-06
2.24321e-07
-3.29271e-06
2.05383e-07
-3.32872e-06
1.85727e-07
-3.3607e-06
1.65383e-07
-3.38853e-06
1.44383e-07
-3.41209e-06
1.22765e-07
-3.43128e-06
1.00572e-07
-3.44601e-06
7.78483e-08
-3.45617e-06
5.46446e-08
-3.46171e-06
3.10149e-08
-3.46256e-06
7.01728e-09
-3.45865e-06
-1.72858e-08
-3.44997e-06
-4.18281e-08
-3.43646e-06
-6.65396e-08
-3.41814e-06
-9.13466e-08
-3.39499e-06
-1.16172e-07
-3.36704e-06
-1.40935e-07
-3.33431e-06
-1.65554e-07
-3.29686e-06
-1.89942e-07
-3.25476e-06
-2.14012e-07
-3.20808e-06
-2.37674e-07
-3.15692e-06
-2.60838e-07
-3.1014e-06
-2.83412e-07
-3.04165e-06
-3.05305e-07
-2.97783e-06
-3.26425e-07
-2.91009e-06
-3.46681e-07
-2.83862e-06
-3.65983e-07
-2.76363e-06
-3.84243e-07
-2.68531e-06
-4.01377e-07
-2.60391e-06
-4.17301e-07
-2.51966e-06
-4.31938e-07
-2.43283e-06
-4.45212e-07
-2.34368e-06
-4.57054e-07
-2.2525e-06
-4.67398e-07
-2.15958e-06
-4.76187e-07
-2.06522e-06
-4.83368e-07
-1.96972e-06
-4.88895e-07
-1.87342e-06
-4.9273e-07
-1.77663e-06
-4.94843e-07
-1.67967e-06
-4.95211e-07
-1.58289e-06
-4.9382e-07
-1.4866e-06
-4.90665e-07
-1.39114e-06
-4.85749e-07
-1.29684e-06
-4.79088e-07
-1.20401e-06
-4.70702e-07
-1.11298e-06
-4.60624e-07
-1.02406e-06
-4.48897e-07
-9.37533e-07
-4.35573e-07
-8.537e-07
-4.20714e-07
-7.72831e-07
-4.04392e-07
-6.95186e-07
-3.8669e-07
-6.21004e-07
-3.67701e-07
-5.50508e-07
-3.47527e-07
-4.83897e-07
-3.26283e-07
-4.21349e-07
-3.04093e-07
-3.63016e-07
-2.81093e-07
-3.09022e-07
-2.5743e-07
-2.59461e-07
-2.33265e-07
-2.14398e-07
-2.0877e-07
-1.73862e-07
-1.84133e-07
-1.37847e-07
-1.59555e-07
-1.0631e-07
-1.35256e-07
-7.91663e-08
-1.11474e-07
-5.6289e-08
-8.84687e-08
-3.7507e-08
-6.6522e-08
-2.26023e-08
-4.59428e-08
-1.13073e-08
-2.70691e-08
-3.30305e-09
-1.02714e-08
1.78398e-09
4.04327e-09
4.38466e-09
1.54283e-08
4.99232e-09
2.3393e-08
4.16918e-09
2.73974e-08
2.55587e-09
2.68485e-08
8.84502e-10
2.10911e-08
9.34826e-09
-1.44994e-09
-1.26133e-09
-6.22304e-09
4.64174e-09
-1.46952e-08
1.71072e-08
-2.71828e-08
3.46548e-08
-4.39391e-08
5.60874e-08
-6.51539e-08
8.0384e-08
-9.09562e-08
1.06681e-07
-1.21418e-07
1.34254e-07
-1.56558e-07
1.62502e-07
-1.9635e-07
1.90928e-07
-2.40724e-07
2.19127e-07
-2.89574e-07
2.46769e-07
-3.42761e-07
2.73593e-07
-4.00124e-07
2.99391e-07
-4.61476e-07
3.24005e-07
-5.26615e-07
3.47316e-07
-5.95325e-07
3.69237e-07
-6.67379e-07
3.8971e-07
-7.42543e-07
4.08699e-07
-8.20579e-07
4.26187e-07
-9.01246e-07
4.4217e-07