/*--------------------------------*- C++ -*----------------------------------*\
  =========                 |
  \\      /  F ield         | OpenFOAM: The Open Source CFD Toolbox
   \\    /   O peration     | Website:  https://openfoam.org
    \\  /    A nd           | Version:  9
     \\/     M anipulation  |
\*---------------------------------------------------------------------------*/
FoamFile
{
    format      ascii;
    class       volVectorField;
    location    "1";
    object      U;
}
// * * * * * * * * * * * * * * * * * * * * * * * * * * * * * * * * * * * * * //

dimensions      [0 1 -1 0 0 0 0];

internalField   nonuniform List<vector> 
16384
(
(1.31265e-05 -1.33487e-05 0)
(8.1053e-05 -4.45886e-05 0)
(0.000205495 -5.76167e-05 0)
(0.000338675 -5.58596e-05 0)
(0.000448938 -4.54775e-05 0)
(0.000519406 -3.03882e-05 0)
(0.000540252 -1.29145e-05 0)
(0.000506034 5.53999e-06 0)
(0.000414328 2.41347e-05 0)
(0.000264715 4.23653e-05 0)
(5.80973e-05 5.99248e-05 0)
(-0.000203734 7.66275e-05 0)
(-0.000518395 9.23652e-05 0)
(-0.000883125 0.00010708 0)
(-0.00129493 0.000120748 0)
(-0.00175069 0.000133369 0)
(-0.00224722 0.000144959 0)
(-0.00278135 0.000155545 0)
(-0.00334996 0.000165163 0)
(-0.00394998 0.000173854 0)
(-0.00457845 0.000181659 0)
(-0.00523253 0.000188624 0)
(-0.00590948 0.000194792 0)
(-0.00660668 0.000200205 0)
(-0.00732164 0.000204908 0)
(-0.00805198 0.000208938 0)
(-0.00879544 0.000212334 0)
(-0.00954984 0.00021513 0)
(-0.0103131 0.000217357 0)
(-0.0110834 0.000219043 0)
(-0.0118586 0.000220213 0)
(-0.0126371 0.000220887 0)
(-0.0134171 0.000221086 0)
(-0.0141968 0.000220823 0)
(-0.0149747 0.000220112 0)
(-0.015749 0.000218961 0)
(-0.0165183 0.000217378 0)
(-0.017281 0.000215368 0)
(-0.0180355 0.000212934 0)
(-0.0187803 0.000210076 0)
(-0.0195138 0.000206793 0)
(-0.0202346 0.000203083 0)
(-0.020941 0.000198943 0)
(-0.0216316 0.000194368 0)
(-0.0223047 0.000189355 0)
(-0.0229589 0.000183899 0)
(-0.0235925 0.000177996 0)
(-0.024204 0.000171641 0)
(-0.0247917 0.000164832 0)
(-0.0253542 0.000157566 0)
(-0.0258897 0.000149841 0)
(-0.0263968 0.000141658 0)
(-0.0268738 0.000133018 0)
(-0.0273193 0.000123925 0)
(-0.0277316 0.000114385 0)
(-0.0281092 0.000104406 0)
(-0.0284507 9.39979e-05 0)
(-0.0287548 8.31742e-05 0)
(-0.0290199 7.19503e-05 0)
(-0.0292448 6.03447e-05 0)
(-0.0294283 4.83788e-05 0)
(-0.0295692 3.6077e-05 0)
(-0.0296666 2.34668e-05 0)
(-0.0297193 1.05787e-05 0)
(-0.0297267 -2.55364e-06 0)
(-0.0296879 -1.58938e-05 0)
(-0.0296024 -2.94023e-05 0)
(-0.0294698 -4.30371e-05 0)
(-0.0292897 -5.67531e-05 0)
(-0.029062 -7.05028e-05 0)
(-0.0287869 -8.4236e-05 0)
(-0.0284644 -9.79006e-05 0)
(-0.0280949 -0.000111442 0)
(-0.0276791 -0.000124806 0)
(-0.0272176 -0.000137934 0)
(-0.0267115 -0.000150768 0)
(-0.0261619 -0.000163249 0)
(-0.0255701 -0.000175318 0)
(-0.0249378 -0.000186917 0)
(-0.0242665 -0.000197984 0)
(-0.0235584 -0.000208464 0)
(-0.0228154 -0.000218299 0)
(-0.02204 -0.000227434 0)
(-0.0212346 -0.000235815 0)
(-0.0204019 -0.000243393 0)
(-0.0195446 -0.000250121 0)
(-0.0186659 -0.000255953 0)
(-0.0177688 -0.000260849 0)
(-0.0168565 -0.000264773 0)
(-0.0159324 -0.000267694 0)
(-0.0149999 -0.000269583 0)
(-0.0140627 -0.000270419 0)
(-0.0131242 -0.000270185 0)
(-0.0121881 -0.000268869 0)
(-0.0112581 -0.000266465 0)
(-0.0103379 -0.000262974 0)
(-0.00943102 -0.000258401 0)
(-0.00854123 -0.000252758 0)
(-0.00767205 -0.000246063 0)
(-0.00682698 -0.000238339 0)
(-0.00600945 -0.000229616 0)
(-0.00522275 -0.000219928 0)
(-0.00447004 -0.000209316 0)
(-0.00375434 -0.000197827 0)
(-0.00307851 -0.000185512 0)
(-0.00244518 -0.000172428 0)
(-0.00185681 -0.000158637 0)
(-0.0013156 -0.000144208 0)
(-0.000823535 -0.000129215 0)
(-0.000382289 -0.000113737 0)
(6.74186e-06 -9.78609e-05 0)
(0.000342487 -8.16801e-05 0)
(0.000624234 -6.52992e-05 0)
(0.000851658 -4.88341e-05 0)
(0.00102488 -3.24148e-05 0)
(0.0011445 -1.61903e-05 0)
(0.00121171 -3.37422e-07 0)
(0.00122834 1.49294e-05 0)
(0.00119705 2.93435e-05 0)
(0.00112143 4.25593e-05 0)
(0.00100632 5.41124e-05 0)
(0.000858127 6.33556e-05 0)
(0.000685322 6.93584e-05 0)
(0.000499175 7.07802e-05 0)
(0.000314484 6.57575e-05 0)
(0.0001507 5.1772e-05 0)
(3.47919e-05 2.64613e-05 0)
(-3.60691e-06 -3.58578e-06 0)
(4.45232e-05 -8.13964e-05 0)
(0.000198137 -0.000198163 0)
(0.000433066 -0.000238983 0)
(0.000663816 -0.000219051 0)
(0.000830721 -0.00015862 0)
(0.000896905 -7.26976e-05 0)
(0.000837679 2.83515e-05 0)
(0.0006375 0.00013742 0)
(0.00028796 0.000249682 0)
(-0.000214158 0.000361863 0)
(-0.000868347 0.000471733 0)
(-0.00167143 0.000577783 0)
(-0.00261833 0.000679001 0)
(-0.00370266 0.000774727 0)
(-0.00491716 0.00086456 0)
(-0.00625398 0.000948286 0)
(-0.00770495 0.00102583 0)
(-0.00926174 0.00109721 0)
(-0.010916 0.00116254 0)
(-0.0126596 0.00122195 0)
(-0.0144844 0.00127565 0)
(-0.0163824 0.00132383 0)
(-0.0183462 0.00136673 0)
(-0.0203684 0.00140456 0)
(-0.022442 0.00143756 0)
(-0.0245601 0.00146595 0)
(-0.0267163 0.00148995 0)
(-0.0289043 0.00150974 0)
(-0.0311182 0.00152552 0)
(-0.0333523 0.00153746 0)
(-0.035601 0.0015457 0)
(-0.037859 0.00155039 0)
(-0.0401211 0.00155163 0)
(-0.0423824 0.00154953 0)
(-0.0446379 0.00154417 0)
(-0.0468829 0.00153561 0)
(-0.0491127 0.00152391 0)
(-0.0513226 0.0015091 0)
(-0.0535081 0.00149121 0)
(-0.0556646 0.00147025 0)
(-0.0577876 0.00144623 0)
(-0.0598726 0.00141914 0)
(-0.0619151 0.00138897 0)
(-0.0639105 0.00135572 0)
(-0.0658543 0.00131936 0)
(-0.0677419 0.00127988 0)
(-0.0695689 0.00123728 0)
(-0.0713305 0.00119152 0)
(-0.0730224 0.00114261 0)
(-0.0746398 0.00109056 0)
(-0.0761784 0.00103535 0)
(-0.0776334 0.000977018 0)
(-0.0790006 0.000915586 0)
(-0.0802754 0.000851094 0)
(-0.0814536 0.000783596 0)
(-0.0825309 0.000713163 0)
(-0.0835031 0.000639877 0)
(-0.0843665 0.000563842 0)
(-0.085117 0.000485175 0)
(-0.0857512 0.000404014 0)
(-0.0862657 0.000320515 0)
(-0.0866572 0.000234854 0)
(-0.086923 0.000147225 0)
(-0.0870604 5.78424e-05 0)
(-0.0870672 -3.30596e-05 0)
(-0.0869416 -0.000125229 0)
(-0.086682 -0.000218395 0)
(-0.0862872 -0.00031227 0)
(-0.0857567 -0.000406547 0)
(-0.0850901 -0.000500905 0)
(-0.0842877 -0.000595007 0)
(-0.0833503 -0.000688503 0)
(-0.0822789 -0.000781033 0)
(-0.0810755 -0.000872225 0)
(-0.0797422 -0.000961699 0)
(-0.0782819 -0.00104907 0)
(-0.0766979 -0.00113395 0)
(-0.0749942 -0.00121595 0)
(-0.0731753 -0.00129467 0)
(-0.0712461 -0.00136974 0)
(-0.0692121 -0.00144077 0)
(-0.0670796 -0.00150739 0)
(-0.064855 -0.00156925 0)
(-0.0625454 -0.00162599 0)
(-0.0601584 -0.0016773 0)
(-0.057702 -0.00172286 0)
(-0.0551847 -0.00176238 0)
(-0.0526151 -0.00179562 0)
(-0.0500024 -0.00182232 0)
(-0.0473561 -0.0018423 0)
(-0.0446859 -0.00185536 0)
(-0.0420017 -0.00186139 0)
(-0.0393135 -0.00186026 0)
(-0.0366317 -0.0018519 0)
(-0.0339665 -0.0018363 0)
(-0.0313282 -0.00181345 0)
(-0.028727 -0.00178339 0)
(-0.026173 -0.00174622 0)
(-0.0236764 -0.00170205 0)
(-0.0212469 -0.00165105 0)
(-0.018894 -0.00159342 0)
(-0.016627 -0.0015294 0)
(-0.0144546 -0.00145928 0)
(-0.0123853 -0.00138337 0)
(-0.010427 -0.00130204 0)
(-0.00858698 -0.00121569 0)
(-0.00687207 -0.00112475 0)
(-0.00528832 -0.00102969 0)
(-0.00384109 -0.000931057 0)
(-0.00253492 -0.000829405 0)
(-0.00137351 -0.000725356 0)
(-0.000359581 -0.000619589 0)
(0.000505162 -0.000512854 0)
(0.00122018 -0.000405981 0)
(0.00178622 -0.000299905 0)
(0.00220545 -0.000195687 0)
(0.00248171 -9.45619e-05 0)
(0.00262071 2.01655e-06 0)
(0.00263037 9.22981e-05 0)
(0.00252126 0.00017413 0)
(0.00230709 0.000244808 0)
(0.00200537 0.000300874 0)
(0.0016383 0.00033786 0)
(0.00123365 0.000350043 0)
(0.000825148 0.000330435 0)
(0.000452503 0.000271185 0)
(0.000166563 0.000166839 0)
(2.63246e-05 3.47403e-05 0)
(5.78784e-05 -0.000205972 0)
(0.000239971 -0.000433321 0)
(0.000493502 -0.000492049 0)
(0.000711598 -0.000419671 0)
(0.000821045 -0.00025374 0)
(0.000774441 -2.45592e-05 0)
(0.000537977 0.000244915 0)
(8.90362e-05 0.000537774 0)
(-0.00058565 0.000841753 0)
(-0.00149212 0.00114802 0)
(-0.00263095 0.00145024 0)
(-0.00399861 0.00174393 0)
(-0.00558855 0.00202594 0)
(-0.00739198 0.00229409 0)
(-0.00939857 0.00254696 0)
(-0.0115969 0.00278369 0)
(-0.013975 0.00300382 0)
(-0.0165202 0.00320722 0)
(-0.01922 0.00339399 0)
(-0.0220618 0.0035644 0)
(-0.0250331 0.00371884 0)
(-0.0281216 0.00385779 0)
(-0.0313155 0.00398178 0)
(-0.0346031 0.00409137 0)
(-0.0379734 0.00418714 0)
(-0.0414155 0.00426966 0)
(-0.044919 0.00433948 0)
(-0.0484739 0.00439711 0)
(-0.0520706 0.00444306 0)
(-0.0556997 0.00447778 0)
(-0.0593523 0.00450166 0)
(-0.0630197 0.00451509 0)
(-0.0666934 0.00451837 0)
(-0.0703652 0.00451179 0)
(-0.0740271 0.00449557 0)
(-0.0776713 0.0044699 0)
(-0.08129 0.00443494 0)
(-0.0848756 0.0043908 0)
(-0.0884205 0.00433755 0)
(-0.0919174 0.00427525 0)
(-0.0953588 0.00420393 0)
(-0.0987372 0.00412359 0)
(-0.102045 0.00403422 0)
(-0.105276 0.00393581 0)
(-0.108421 0.00382833 0)
(-0.111474 0.00371177 0)
(-0.114427 0.00358609 0)
(-0.117273 0.00345128 0)
(-0.120004 0.00330736 0)
(-0.122613 0.00315434 0)
(-0.125093 0.00299227 0)
(-0.127436 0.00282121 0)
(-0.129636 0.00264127 0)
(-0.131685 0.00245259 0)
(-0.133577 0.00225534 0)
(-0.135304 0.00204974 0)
(-0.136861 0.00183606 0)
(-0.13824 0.00161459 0)
(-0.139437 0.00138572 0)
(-0.140445 0.00114983 0)
(-0.141259 0.000907394 0)
(-0.141874 0.00065893 0)
(-0.142286 0.000405007 0)
(-0.142491 0.000146247 0)
(-0.142485 -0.000116672 0)
(-0.142266 -0.000383023 0)
(-0.141831 -0.000652024 0)
(-0.141178 -0.000922847 0)
(-0.140308 -0.00119462 0)
(-0.139219 -0.00146641 0)
(-0.137911 -0.00173728 0)
(-0.136388 -0.00200621 0)
(-0.134649 -0.00227219 0)
(-0.132699 -0.00253416 0)
(-0.130541 -0.00279105 0)
(-0.12818 -0.00304176 0)
(-0.125621 -0.00328521 0)
(-0.122871 -0.00352028 0)
(-0.119937 -0.00374588 0)
(-0.116826 -0.00396092 0)
(-0.113548 -0.00416434 0)
(-0.110113 -0.0043551 0)
(-0.106531 -0.00453218 0)
(-0.102813 -0.00469463 0)
(-0.0989717 -0.00484152 0)
(-0.0950194 -0.004972 0)
(-0.0909696 -0.00508526 0)
(-0.0868362 -0.00518058 0)
(-0.0826338 -0.0052573 0)
(-0.0783773 -0.00531486 0)
(-0.0740821 -0.00535277 0)
(-0.0697639 -0.00537065 0)
(-0.0654388 -0.0053682 0)
(-0.0611228 -0.00534524 0)
(-0.0568323 -0.00530168 0)
(-0.0525834 -0.00523755 0)
(-0.0483924 -0.00515299 0)
(-0.0442754 -0.00504823 0)
(-0.0402481 -0.00492365 0)
(-0.0363261 -0.00477971 0)
(-0.0325243 -0.004617 0)
(-0.0288572 -0.00443622 0)
(-0.0253389 -0.00423819 0)
(-0.0219824 -0.00402383 0)
(-0.0188003 -0.00379418 0)
(-0.015804 -0.00355039 0)
(-0.0130041 -0.00329375 0)
(-0.0104101 -0.00302564 0)
(-0.00803024 -0.00274759 0)
(-0.00587162 -0.00246127 0)
(-0.0039398 -0.00216848 0)
(-0.00223884 -0.00187121 0)
(-0.000771132 -0.00157166 0)
(0.000462795 -0.00127225 0)
(0.00146447 -0.000975683 0)
(0.0022377 -0.000685044 0)
(0.0027889 -0.000403852 0)
(0.00312737 -0.000136203 0)
(0.0032658 0.000113071 0)
(0.00322072 0.000338198 0)
(0.00301318 0.000532189 0)
(0.00266938 0.00068653 0)
(0.00222153 0.00079087 0)
(0.00170856 0.000832892 0)
(0.00117581 0.000798771 0)
(0.000674326 0.000674756 0)
(0.000270494 0.000452552 0)
(5.14258e-05 0.00015022 0)
(5.65482e-05 -0.000340071 0)
(0.000221417 -0.000665363 0)
(0.00042345 -0.000710684 0)
(0.00054739 -0.000543408 0)
(0.000514051 -0.000220573 0)
(0.000270682 0.000211021 0)
(-0.000221342 0.000714531 0)
(-0.000988717 0.00126173 0)
(-0.00204781 0.00183134 0)
(-0.00340667 0.00240744 0)
(-0.00506681 0.00297827 0)
(-0.00702466 0.00353518 0)
(-0.00927272 0.00407194 0)
(-0.0118006 0.00458411 0)
(-0.0145956 0.00506866 0)
(-0.0176438 0.00552363 0)
(-0.0209298 0.00594787 0)
(-0.0244378 0.00634087 0)
(-0.0281517 0.00670259 0)
(-0.0320551 0.00703333 0)
(-0.0361318 0.00733367 0)
(-0.0403658 0.00760436 0)
(-0.0447414 0.0078463 0)
(-0.0492432 0.00806045 0)
(-0.0538563 0.00824781 0)
(-0.0585663 0.00840938 0)
(-0.0633592 0.00854615 0)
(-0.0682215 0.00865907 0)
(-0.07314 0.00874904 0)
(-0.0781022 0.00881687 0)
(-0.0830958 0.00886334 0)
(-0.0881088 0.00888912 0)
(-0.0931297 0.00889481 0)
(-0.0981473 0.00888092 0)
(-0.10315 0.00884791 0)
(-0.108128 0.00879613 0)
(-0.11307 0.00872587 0)
(-0.117966 0.00863737 0)
(-0.122804 0.0085308 0)
(-0.127576 0.00840626 0)
(-0.13227 0.00826383 0)
(-0.136877 0.00810355 0)
(-0.141387 0.00792541 0)
(-0.145788 0.00772942 0)
(-0.150072 0.00751555 0)
(-0.154228 0.00728379 0)
(-0.158245 0.00703412 0)
(-0.162115 0.00676655 0)
(-0.165826 0.00648113 0)
(-0.16937 0.00617793 0)
(-0.172735 0.00585705 0)
(-0.175913 0.00551868 0)
(-0.178894 0.00516305 0)
(-0.181668 0.00479046 0)
(-0.184226 0.00440127 0)
(-0.186559 0.00399594 0)
(-0.188659 0.00357502 0)
(-0.190517 0.00313912 0)
(-0.192125 0.00268897 0)
(-0.193475 0.0022254 0)
(-0.194562 0.00174932 0)
(-0.195378 0.00126175 0)
(-0.195918 0.00076382 0)
(-0.196176 0.000256755 0)
(-0.196148 -0.00025812 0)
(-0.19583 -0.000779378 0)
(-0.19522 -0.0013055 0)
(-0.194316 -0.00183486 0)
(-0.193116 -0.00236577 0)
(-0.19162 -0.00289645 0)
(-0.18983 -0.00342502 0)
(-0.187748 -0.00394957 0)
(-0.185375 -0.00446812 0)
(-0.182717 -0.00497863 0)
(-0.179779 -0.00547903 0)
(-0.176566 -0.00596723 0)
(-0.173088 -0.00644111 0)
(-0.169351 -0.00689855 0)
(-0.165366 -0.00733744 0)
(-0.161144 -0.00775572 0)
(-0.156697 -0.00815132 0)
(-0.152038 -0.00852226 0)
(-0.147182 -0.00886661 0)
(-0.142142 -0.00918252 0)
(-0.136936 -0.00946824 0)
(-0.131581 -0.00972212 0)
(-0.126094 -0.00994265 0)
(-0.120494 -0.0101284 0)
(-0.114801 -0.0102782 0)
(-0.109034 -0.0103909 0)
(-0.103214 -0.0104656 0)
(-0.0973628 -0.0105016 0)
(-0.0915005 -0.0104983 0)
(-0.0856491 -0.0104554 0)
(-0.0798303 -0.0103727 0)
(-0.0740658 -0.0102503 0)
(-0.0683771 -0.0100885 0)
(-0.0627856 -0.00988768 0)
(-0.0573123 -0.00964865 0)
(-0.0519778 -0.00937229 0)
(-0.0468022 -0.00905976 0)
(-0.0418046 -0.00871243 0)
(-0.0370037 -0.00833187 0)
(-0.0324169 -0.00791991 0)
(-0.0280607 -0.00747858 0)
(-0.0239503 -0.00701014 0)
(-0.0200999 -0.00651709 0)
(-0.0165217 -0.00600215 0)
(-0.0132267 -0.00546834 0)
(-0.0102241 -0.00491889 0)
(-0.00752112 -0.00435739 0)
(-0.00512294 -0.00378772 0)
(-0.00303247 -0.00321418 0)
(-0.00125015 -0.00264149 0)
(0.000226314 -0.00207493 0)
(0.00140224 -0.00152043 0)
(0.00228628 -0.000984719 0)
(0.00289086 -0.000475531 0)
(0.0032326 -1.82558e-06 0)
(0.00333284 0.000425906 0)
(0.00321824 0.000795309 0)
(0.00292141 0.0010918 0)
(0.00248157 0.0012983 0)
(0.00194512 0.00139528 0)
(0.00136504 0.00136158 0)
(0.000800322 0.00117652 0)
(0.000330073 0.000825246 0)
(6.52816e-05 0.000313354 0)
(4.6607e-05 -0.000452152 0)
(0.000162174 -0.00083455 0)
(0.000258878 -0.000821295 0)
(0.000225263 -0.000510275 0)
(-1.78076e-05 2.11792e-05 0)
(-0.000524917 0.000709704 0)
(-0.00133646 0.00150448 0)
(-0.00248076 0.00236566 0)
(-0.00397558 0.00326236 0)
(-0.00582997 0.00417091 0)
(-0.00804584 0.00507333 0)
(-0.0106195 0.00595608 0)
(-0.0135426 0.00680918 0)
(-0.0168035 0.00762533 0)
(-0.0203878 0.0083994 0)
(-0.0242792 0.00912794 0)
(-0.02846 0.00980879 0)
(-0.0329116 0.0104408 0)
(-0.0376148 0.0110236 0)
(-0.0425502 0.0115575 0)
(-0.0476984 0.0120431 0)
(-0.0530398 0.0124813 0)
(-0.0585556 0.0128736 0)
(-0.0642271 0.0132211 0)
(-0.0700359 0.0135254 0)
(-0.0759644 0.013788 0)
(-0.0819952 0.0140103 0)
(-0.0881117 0.0141938 0)
(-0.0942974 0.0143399 0)
(-0.100537 0.0144497 0)
(-0.106814 0.0145245 0)
(-0.113115 0.0145653 0)
(-0.119424 0.0145731 0)
(-0.125728 0.0145487 0)
(-0.132013 0.0144927 0)
(-0.138264 0.0144058 0)
(-0.144469 0.0142884 0)
(-0.150614 0.014141 0)
(-0.156687 0.0139637 0)
(-0.162673 0.0137568 0)
(-0.16856 0.0135205 0)
(-0.174336 0.0132547 0)
(-0.179987 0.0129597 0)
(-0.185501 0.0126353 0)
(-0.190865 0.0122816 0)
(-0.196067 0.0118987 0)
(-0.201093 0.0114864 0)
(-0.205932 0.011045 0)
(-0.21057 0.0105744 0)
(-0.214996 0.0100749 0)
(-0.219197 0.00954672 0)
(-0.22316 0.00899014 0)
(-0.226875 0.00840561 0)
(-0.23033 0.00779365 0)
(-0.233513 0.00715491 0)
(-0.236412 0.00649017 0)
(-0.239019 0.00580034 0)
(-0.241321 0.00508647 0)
(-0.24331 0.00434977 0)
(-0.244977 0.0035916 0)
(-0.246313 0.00281349 0)
(-0.247311 0.00201711 0)
(-0.247962 0.00120431 0)
(-0.248262 0.000377101 0)
(-0.248205 -0.000462365 0)
(-0.247787 -0.00131176 0)
(-0.247004 -0.00216861 0)
(-0.245855 -0.00303031 0)
(-0.244338 -0.00389409 0)
(-0.242452 -0.00475708 0)
(-0.240201 -0.00561627 0)
(-0.237586 -0.00646856 0)
(-0.234611 -0.00731076 0)
(-0.231281 -0.00813961 0)
(-0.227604 -0.00895177 0)
(-0.223586 -0.00974388 0)
(-0.219238 -0.0105126 0)
(-0.214571 -0.0112544 0)
(-0.209596 -0.011966 0)
(-0.204327 -0.0126441 0)
(-0.198779 -0.0132854 0)
(-0.192968 -0.0138867 0)
(-0.186912 -0.0144449 0)
(-0.180629 -0.0149571 0)
(-0.17414 -0.0154205 0)
(-0.167465 -0.0158325 0)
(-0.160627 -0.0161905 0)
(-0.153648 -0.0164925 0)
(-0.146553 -0.0167365 0)
(-0.139365 -0.0169207 0)
(-0.132111 -0.0170436 0)
(-0.124815 -0.0171041 0)
(-0.117504 -0.0171014 0)
(-0.110205 -0.0170349 0)
(-0.102944 -0.0169044 0)
(-0.0957473 -0.0167099 0)
(-0.0886418 -0.016452 0)
(-0.0816535 -0.0161314 0)
(-0.0748082 -0.0157493 0)
(-0.0681311 -0.0153072 0)
(-0.0616468 -0.014807 0)
(-0.0553788 -0.0142508 0)
(-0.0493497 -0.0136413 0)
(-0.0435811 -0.0129814 0)
(-0.0380929 -0.0122744 0)
(-0.0329039 -0.011524 0)
(-0.0280311 -0.0107343 0)
(-0.0234896 -0.0099096 0)
(-0.0192927 -0.00905493 0)
(-0.0154514 -0.00817554 0)
(-0.0119745 -0.00727723 0)
(-0.00886807 -0.00636632 0)
(-0.00613559 -0.00544977 0)
(-0.00377739 -0.0045352 0)
(-0.00179055 -0.0036311 0)
(-0.000168508 -0.00274691 0)
(0.00109925 -0.00189328 0)
(0.00202762 -0.00108224 0)
(0.00263629 -0.000327605 0)
(0.00295028 0.000354791 0)
(0.0030004 0.000946659 0)
(0.00282383 0.00142693 0)
(0.00246463 0.0017715 0)
(0.00197434 0.00195341 0)
(0.00141134 0.0019436 0)
(0.000840848 0.00171288 0)
(0.000351616 0.00123577 0)
(7.04371e-05 0.00049779 0)
(3.18624e-05 -0.000525061 0)
(7.65696e-05 -0.000903091 0)
(2.83054e-05 -0.000774715 0)
(-0.000211329 -0.000264907 0)
(-0.000716416 0.000529611 0)
(-0.00154059 0.00152949 0)
(-0.00272361 0.00267037 0)
(-0.00429347 0.00390094 0)
(-0.00626781 0.00518068 0)
(-0.00865557 0.00647789 0)
(-0.0114584 0.007768 0)
(-0.0146722 0.0090322 0)
(-0.0182876 0.0102563 0)
(-0.0222919 0.0114296 0)
(-0.026669 0.0125447 0)
(-0.031401 0.0135962 0)
(-0.0364679 0.0145806 0)
(-0.0418488 0.015496 0)
(-0.047522 0.0163415 0)
(-0.0534654 0.0171171 0)
(-0.0596567 0.0178236 0)
(-0.0660736 0.018462 0)
(-0.0726942 0.0190338 0)
(-0.0794969 0.019541 0)
(-0.0864603 0.0199854 0)
(-0.0935637 0.0203689 0)
(-0.100787 0.0206937 0)
(-0.10811 0.0209615 0)
(-0.115514 0.0211744 0)
(-0.12298 0.0213339 0)
(-0.13049 0.0214418 0)
(-0.138026 0.0214996 0)
(-0.14557 0.0215085 0)
(-0.153107 0.0214697 0)
(-0.160618 0.0213841 0)
(-0.168088 0.0212527 0)
(-0.175501 0.0210761 0)
(-0.182841 0.0208549 0)
(-0.190091 0.0205895 0)
(-0.197237 0.0202802 0)
(-0.204262 0.0199272 0)
(-0.211152 0.0195308 0)
(-0.217891 0.0190909 0)
(-0.224464 0.0186078 0)
(-0.230856 0.0180814 0)
(-0.237051 0.0175119 0)
(-0.243035 0.0168993 0)
(-0.248793 0.0162437 0)
(-0.25431 0.0155454 0)
(-0.259571 0.0148047 0)
(-0.264562 0.014022 0)
(-0.269268 0.0131978 0)
(-0.273676 0.0123328 0)
(-0.277772 0.0114278 0)
(-0.281542 0.0104839 0)
(-0.284973 0.00950215 0)
(-0.288054 0.00848403 0)
(-0.290773 0.00743112 0)
(-0.293117 0.00634522 0)
(-0.295077 0.00522836 0)
(-0.296643 0.0040828 0)
(-0.297806 0.00291102 0)
(-0.298557 0.00171576 0)
(-0.298891 0.000499963 0)
(-0.298801 -0.000733193 0)
(-0.298281 -0.00198031 0)
(-0.29733 -0.00323776 0)
(-0.295943 -0.00450172 0)
(-0.294121 -0.00576819 0)
(-0.291863 -0.00703296 0)
(-0.289171 -0.00829167 0)
(-0.286049 -0.00953981 0)
(-0.282502 -0.0107728 0)
(-0.278535 -0.0119858 0)
(-0.274157 -0.013174 0)
(-0.269378 -0.0143326 0)
(-0.264209 -0.0154567 0)
(-0.258661 -0.0165413 0)
(-0.252751 -0.0175817 0)
(-0.246494 -0.0185729 0)
(-0.239907 -0.0195103 0)
(-0.23301 -0.0203893 0)
(-0.225823 -0.0212055 0)
(-0.218368 -0.0219545 0)
(-0.210669 -0.0226324 0)
(-0.202751 -0.0232354 0)
(-0.194638 -0.02376 0)
(-0.186359 -0.024203 0)
(-0.17794 -0.0245616 0)
(-0.169411 -0.0248333 0)
(-0.160801 -0.0250161 0)
(-0.152141 -0.0251082 0)
(-0.14346 -0.0251085 0)
(-0.13479 -0.0250161 0)
(-0.126162 -0.0248308 0)
(-0.117607 -0.0245528 0)
(-0.109155 -0.0241826 0)
(-0.100838 -0.0237216 0)
(-0.0926849 -0.0231713 0)
(-0.0847256 -0.022534 0)
(-0.0769886 -0.0218124 0)
(-0.0695015 -0.0210098 0)
(-0.0622906 -0.0201299 0)
(-0.055381 -0.019177 0)
(-0.048796 -0.018156 0)
(-0.0425575 -0.0170722 0)
(-0.0366851 -0.0159316 0)
(-0.0311966 -0.0147407 0)
(-0.0261072 -0.0135067 0)
(-0.0214298 -0.0122372 0)
(-0.0171745 -0.0109408 0)
(-0.0133484 -0.00962669 0)
(-0.00995534 -0.00830491 0)
(-0.00699579 -0.00698655 0)
(-0.00446638 -0.0056838 0)
(-0.00235961 -0.00441017 0)
(-0.000663594 -0.00318075 0)
(0.000638418 -0.00201242 0)
(0.0015684 -0.000924271 0)
(0.00215401 6.20729e-05 0)
(0.00242902 0.000922075 0)
(0.00243376 0.00162793 0)
(0.00221564 0.00214836 0)
(0.00182973 0.00244863 0)
(0.00133831 0.00249117 0)
(0.000811316 0.00223683 0)
(0.000343657 0.00164706 0)
(6.95495e-05 0.000685093 0)
(1.45072e-05 -0.000548352 0)
(-2.57261e-05 -0.000844445 0)
(-0.000247129 -0.000534066 0)
(-0.000728863 0.000235656 0)
(-0.00153615 0.00135067 0)
(-0.00271934 0.00271693 0)
(-0.00431563 0.0042574 0)
(-0.00635096 0.00590985 0)
(-0.00884157 0.00762441 0)
(-0.0117953 0.00936145 0)
(-0.0152128 0.0110897 0)
(-0.0190889 0.012785 0)
(-0.0234132 0.0144286 0)
(-0.0281718 0.0160064 0)
(-0.033347 0.0175081 0)
(-0.0389193 0.0189263 0)
(-0.0448667 0.020256 0)
(-0.0511664 0.0214943 0)
(-0.0577945 0.0226395 0)
(-0.0647264 0.0236914 0)
(-0.0719374 0.0246505 0)
(-0.0794028 0.0255181 0)
(-0.0870979 0.0262959 0)
(-0.0949985 0.0269862 0)
(-0.103081 0.0275913 0)
(-0.111321 0.0281135 0)
(-0.119696 0.0285556 0)
(-0.128183 0.0289199 0)
(-0.136761 0.0292087 0)
(-0.145409 0.0294245 0)
(-0.154105 0.0295693 0)
(-0.162828 0.0296449 0)
(-0.17156 0.0296531 0)
(-0.18028 0.0295955 0)
(-0.188968 0.0294733 0)
(-0.197607 0.0292876 0)
(-0.206177 0.0290395 0)
(-0.214661 0.0287296 0)
(-0.223039 0.0283586 0)
(-0.231293 0.0279269 0)
(-0.239407 0.0274349 0)
(-0.247361 0.0268828 0)
(-0.255139 0.0262708 0)
(-0.262722 0.0255992 0)
(-0.270094 0.024868 0)
(-0.277236 0.0240773 0)
(-0.284132 0.0232275 0)
(-0.290765 0.0223187 0)
(-0.297116 0.0213514 0)
(-0.30317 0.020326 0)
(-0.308911 0.0192431 0)
(-0.314321 0.0181036 0)
(-0.319384 0.0169085 0)
(-0.324086 0.0156589 0)
(-0.328412 0.0143563 0)
(-0.332345 0.0130024 0)
(-0.335873 0.0115992 0)
(-0.338982 0.0101488 0)
(-0.34166 0.00865393 0)
(-0.343894 0.00711727 0)
(-0.345674 0.00554198 0)
(-0.346989 0.00393151 0)
(-0.347832 0.00228961 0)
(-0.348193 0.000620329 0)
(-0.348067 -0.00107197 0)
(-0.347448 -0.00278263 0)
(-0.346333 -0.00450672 0)
(-0.344719 -0.006239 0)
(-0.342605 -0.00797402 0)
(-0.339991 -0.00970606 0)
(-0.336881 -0.0114292 0)
(-0.333277 -0.0131373 0)
(-0.329186 -0.0148241 0)
(-0.324616 -0.0164832 0)
(-0.319575 -0.018108 0)
(-0.314074 -0.019692 0)
(-0.308127 -0.0212285 0)
(-0.301748 -0.0227109 0)
(-0.294953 -0.0241326 0)
(-0.287761 -0.0254872 0)
(-0.280193 -0.0267683 0)
(-0.272269 -0.0279696 0)
(-0.264013 -0.0290853 0)
(-0.255451 -0.0301095 0)
(-0.246608 -0.031037 0)
(-0.237513 -0.0318625 0)
(-0.228195 -0.0325814 0)
(-0.218685 -0.0331894 0)
(-0.209014 -0.0336827 0)
(-0.199214 -0.034058 0)
(-0.18932 -0.0343124 0)
(-0.179364 -0.0344439 0)
(-0.169383 -0.0344506 0)
(-0.15941 -0.0343316 0)
(-0.149481 -0.0340866 0)
(-0.139631 -0.0337157 0)
(-0.129894 -0.0332198 0)
(-0.120306 -0.0326007 0)
(-0.110901 -0.0318605 0)
(-0.101711 -0.0310024 0)
(-0.0927688 -0.03003 0)
(-0.084106 -0.0289477 0)
(-0.0757522 -0.0277608 0)
(-0.0677356 -0.026475 0)
(-0.0600828 -0.025097 0)
(-0.0528182 -0.0236341 0)
(-0.0459641 -0.0220944 0)
(-0.0395406 -0.0204868 0)
(-0.033565 -0.018821 0)
(-0.0280518 -0.0171077 0)
(-0.0230122 -0.0153582 0)
(-0.0184545 -0.013585 0)
(-0.0143832 -0.011802 0)
(-0.0107987 -0.0100239 0)
(-0.00769758 -0.00826705 0)
(-0.0050718 -0.00654951 0)
(-0.0029085 -0.00489118 0)
(-0.00118969 -0.00331417 0)
(0.000108177 -0.00184317 0)
(0.00101454 -0.000505827 0)
(0.00156516 0.00066686 0)
(0.00180245 0.00164021 0)
(0.00177605 0.0023756 0)
(0.00154331 0.00283031 0)
(0.00116916 0.00295775 0)
(0.000726735 0.00270806 0)
(0.000313663 0.00202876 0)
(6.4572e-05 0.000861791 0)
(-4.17368e-06 -0.000515608 0)
(-0.000138262 -0.000640345 0)
(-0.000552217 -7.23526e-05 0)
(-0.00130224 0.00102405 0)
(-0.00244199 0.00252018 0)
(-0.00401667 0.004309 0)
(-0.00605928 0.00630201 0)
(-0.00859237 0.00842693 0)
(-0.0116296 0.0106251 0)
(-0.0151767 0.0128493 0)
(-0.0192327 0.0150617 0)
(-0.0237908 0.0172328 0)
(-0.0288394 0.0193393 0)
(-0.0343628 0.0213636 0)
(-0.040342 0.0232923 0)
(-0.0467557 0.025116 0)
(-0.0535803 0.0268279 0)
(-0.060791 0.0284239 0)
(-0.0683619 0.0299016 0)
(-0.0762665 0.0312602 0)
(-0.0844777 0.0325001 0)
(-0.0929686 0.0336226 0)
(-0.101712 0.0346297 0)
(-0.110682 0.0355237 0)
(-0.119851 0.0363076 0)
(-0.129194 0.0369841 0)
(-0.138685 0.0375564 0)
(-0.1483 0.0380274 0)
(-0.158013 0.0384001 0)
(-0.167801 0.0386772 0)
(-0.177641 0.0388613 0)
(-0.187509 0.0389548 0)
(-0.197384 0.0389598 0)
(-0.207242 0.0388783 0)
(-0.217063 0.0387118 0)
(-0.226825 0.0384619 0)
(-0.236507 0.0381297 0)
(-0.246089 0.0377162 0)
(-0.255548 0.0372222 0)
(-0.264866 0.0366484 0)
(-0.274022 0.0359952 0)
(-0.282996 0.035263 0)
(-0.291768 0.0344521 0)
(-0.300318 0.0335629 0)
(-0.308626 0.0325955 0)
(-0.316673 0.0315502 0)
(-0.324439 0.0304275 0)
(-0.331906 0.0292277 0)
(-0.339053 0.0279514 0)
(-0.345863 0.0265993 0)
(-0.352317 0.0251723 0)
(-0.358397 0.0236717 0)
(-0.364084 0.0220987 0)
(-0.369362 0.020455 0)
(-0.374214 0.0187426 0)
(-0.378623 0.0169638 0)
(-0.382575 0.0151212 0)
(-0.386054 0.0132178 0)
(-0.389046 0.011257 0)
(-0.391539 0.00924242 0)
(-0.393521 0.00717827 0)
(-0.394979 0.00506907 0)
(-0.395906 0.00291971 0)
(-0.396292 0.000735517 0)
(-0.396131 -0.00147782 0)
(-0.395416 -0.00371423 0)
(-0.394145 -0.00596728 0)
(-0.392313 -0.00823019 0)
(-0.389921 -0.0104959 0)
(-0.38697 -0.0127569 0)
(-0.383461 -0.0150056 0)
(-0.379401 -0.017234 0)
(-0.374795 -0.0194341 0)
(-0.369652 -0.0215975 0)
(-0.363982 -0.0237158 0)
(-0.357798 -0.0257805 0)
(-0.351115 -0.0277831 0)
(-0.343948 -0.0297151 0)
(-0.336316 -0.0315679 0)
(-0.32824 -0.0333332 0)
(-0.319741 -0.0350028 0)
(-0.310845 -0.0365689 0)
(-0.301577 -0.0380236 0)
(-0.291965 -0.0393596 0)
(-0.282038 -0.04057 0)
(-0.271827 -0.0416482 0)
(-0.261366 -0.0425883 0)
(-0.250687 -0.0433846 0)
(-0.239826 -0.0440324 0)
(-0.228818 -0.0445274 0)
(-0.217701 -0.0448659 0)
(-0.206512 -0.0450452 0)
(-0.19529 -0.045063 0)
(-0.184073 -0.0449182 0)
(-0.1729 -0.0446103 0)
(-0.16181 -0.0441395 0)
(-0.150842 -0.0435071 0)
(-0.140033 -0.0427152 0)
(-0.129422 -0.0417669 0)
(-0.119046 -0.0406659 0)
(-0.108939 -0.0394172 0)
(-0.0991369 -0.0380264 0)
(-0.0896723 -0.0365003 0)
(-0.0805765 -0.0348465 0)
(-0.0718789 -0.0330735 0)
(-0.0636066 -0.0311909 0)
(-0.0557844 -0.0292092 0)
(-0.0484344 -0.0271399 0)
(-0.0415758 -0.0249956 0)
(-0.0352248 -0.0227901 0)
(-0.0293941 -0.0205381 0)
(-0.0240927 -0.0182558 0)
(-0.0193259 -0.0159608 0)
(-0.0150946 -0.0136721 0)
(-0.0113954 -0.0114107 0)
(-0.00822009 -0.00919921 0)
(-0.00555524 -0.00706279 0)
(-0.00338215 -0.00502903 0)
(-0.00167637 -0.00312843 0)
(-0.000407371 -0.00139482 0)
(0.000461789 0.000134242 0)
(0.000974792 0.00141712 0)
(0.00118252 0.00240775 0)
(0.00114367 0.00305531 0)
(0.000924594 0.00330404 0)
(0.000600129 0.00309324 0)
(0.000267645 0.00235691 0)
(5.68969e-05 0.00101816 0)
(-2.34356e-05 -0.000423124 0)
(-0.000256787 -0.000278854 0)
(-0.000876211 0.000629244 0)
(-0.00191295 0.00212408 0)
(-0.00340737 0.00406511 0)
(-0.00539811 0.0063343 0)
(-0.00791269 0.0088331 0)
(-0.0109691 0.0114802 0)
(-0.0145774 0.0142088 0)
(-0.0187405 0.0169647 0)
(-0.0234551 0.0197041 0)
(-0.0287122 0.0223919 0)
(-0.0344984 0.0250007 0)
(-0.0407963 0.0275092 0)
(-0.0475853 0.0299012 0)
(-0.0548422 0.0321648 0)
(-0.062542 0.0342916 0)
(-0.0706578 0.0362761 0)
(-0.079162 0.0381152 0)
(-0.088026 0.0398074 0)
(-0.0972211 0.0413528 0)
(-0.106718 0.0427528 0)
(-0.116488 0.0440094 0)
(-0.126501 0.0451253 0)
(-0.13673 0.0461036 0)
(-0.147146 0.0469478 0)
(-0.157722 0.0476613 0)
(-0.16843 0.0482477 0)
(-0.179243 0.0487104 0)
(-0.190135 0.0490526 0)
(-0.201081 0.0492775 0)
(-0.212056 0.0493879 0)
(-0.223033 0.0493864 0)
(-0.233991 0.0492752 0)
(-0.244903 0.0490565 0)
(-0.255747 0.0487318 0)
(-0.266499 0.0483029 0)
(-0.277137 0.0477707 0)
(-0.287637 0.0471365 0)
(-0.297976 0.0464009 0)
(-0.308134 0.0455647 0)
(-0.318086 0.0446284 0)
(-0.327811 0.0435924 0)
(-0.337288 0.0424572 0)
(-0.346493 0.0412232 0)
(-0.355407 0.0398908 0)
(-0.364007 0.0384605 0)
(-0.372272 0.0369331 0)
(-0.380181 0.0353092 0)
(-0.387714 0.03359 0)
(-0.39485 0.0317767 0)
(-0.401569 0.0298707 0)
(-0.407852 0.0278741 0)
(-0.41368 0.0257889 0)
(-0.419034 0.0236178 0)
(-0.423898 0.0213636 0)
(-0.428254 0.0190298 0)
(-0.432085 0.0166203 0)
(-0.435378 0.0141392 0)
(-0.438117 0.0115915 0)
(-0.440291 0.00898221 0)
(-0.441886 0.0063172 0)
(-0.442894 0.00360266 0)
(-0.443304 0.000845277 0)
(-0.44311 -0.00194777 0)
(-0.442305 -0.00476886 0)
(-0.440886 -0.00760989 0)
(-0.438849 -0.0104624 0)
(-0.436194 -0.0133174 0)
(-0.432923 -0.0161658 0)
(-0.429038 -0.0189978 0)
(-0.424545 -0.0218037 0)
(-0.419451 -0.0245732 0)
(-0.413766 -0.027296 0)
(-0.407501 -0.0299617 0)
(-0.40067 -0.0325596 0)
(-0.393288 -0.0350792 0)
(-0.385375 -0.0375098 0)
(-0.376949 -0.0398408 0)
(-0.368034 -0.0420619 0)
(-0.358654 -0.044163 0)
(-0.348834 -0.0461341 0)
(-0.338605 -0.0479657 0)
(-0.327996 -0.0496487 0)
(-0.317038 -0.0511743 0)
(-0.305767 -0.0525347 0)
(-0.294216 -0.0537221 0)
(-0.282424 -0.0547299 0)
(-0.270428 -0.0555519 0)
(-0.258267 -0.0561829 0)
(-0.245982 -0.0566184 0)
(-0.233613 -0.056855 0)
(-0.221203 -0.0568899 0)
(-0.208793 -0.0567216 0)
(-0.196426 -0.0563495 0)
(-0.184144 -0.0557741 0)
(-0.171989 -0.0549968 0)
(-0.160002 -0.0540204 0)
(-0.148226 -0.0528484 0)
(-0.136699 -0.051486 0)
(-0.12546 -0.049939 0)
(-0.114549 -0.0482146 0)
(-0.103999 -0.0463213 0)
(-0.0938464 -0.0442685 0)
(-0.084122 -0.042067 0)
(-0.0748559 -0.0397287 0)
(-0.066075 -0.0372667 0)
(-0.0578036 -0.0346955 0)