/*--------------------------------*- C++ -*----------------------------------*\
  =========                 |
  \\      /  F ield         | OpenFOAM: The Open Source CFD Toolbox
   \\    /   O peration     | Website:  https://openfoam.org
    \\  /    A nd           | Version:  9
     \\/     M anipulation  |
\*---------------------------------------------------------------------------*/
FoamFile
{
    format      ascii;
    class       volScalarField;
    location    "0.2";
    object      p;
}
// * * * * * * * * * * * * * * * * * * * * * * * * * * * * * * * * * * * * * //

dimensions      [0 2 -2 0 0 0 0];

internalField   nonuniform List<scalar> 
16384
(
3.52563e-06
0.00119321
0.000290067
-0.00327474
-0.00930509
-0.0174934
-0.0274854
-0.0389211
-0.0514629
-0.0648064
-0.0786811
-0.0928508
-0.107109
-0.121278
-0.135202
-0.14875
-0.16181
-0.174285
-0.186094
-0.19717
-0.207456
-0.216903
-0.225475
-0.233139
-0.239869
-0.245645
-0.25045
-0.254272
-0.257101
-0.258929
-0.25975
-0.259559
-0.258353
-0.256129
-0.252888
-0.248627
-0.243346
-0.237046
-0.229729
-0.221395
-0.212048
-0.201692
-0.19033
-0.17797
-0.164618
-0.150285
-0.13498
-0.118718
-0.101515
-0.0833872
-0.0643571
-0.0444482
-0.0236875
-0.00210549
0.020264
0.0433834
0.0672118
0.091704
0.116811
0.142481
0.168655
0.195275
0.222274
0.249585
0.277136
0.304852
0.332654
0.360461
0.388189
0.415751
0.443058
0.470022
0.49655
0.522551
0.547932
0.572602
0.596471
0.619448
0.641446
0.66238
0.682168
0.700734
0.718002
0.733904
0.748378
0.761365
0.772816
0.782687
0.790941
0.797551
0.802496
0.805766
0.807358
0.80728
0.805547
0.802184
0.797228
0.790723
0.782723
0.773291
0.762501
0.750434
0.737182
0.722844
0.707528
0.691351
0.674437
0.656916
0.63893
0.620622
0.602147
0.583664
0.565338
0.547341
0.529851
0.51305
0.497129
0.48228
0.468699
0.456584
0.446132
0.43753
0.430943
0.426494
0.424214
0.423983
0.425429
0.42754
-0.00116452
2.41466e-05
-0.00100972
-0.00435589
-0.00973593
-0.0169415
-0.0257246
-0.035808
-0.0469183
-0.0587993
-0.0712168
-0.0839592
-0.0968387
-0.10969
-0.122366
-0.134743
-0.146709
-0.158171
-0.169048
-0.179271
-0.188782
-0.197532
-0.20548
-0.212592
-0.218839
-0.224198
-0.228651
-0.232181
-0.234778
-0.236429
-0.237129
-0.23687
-0.235648
-0.23346
-0.230301
-0.226171
-0.221069
-0.214995
-0.207948
-0.199932
-0.190948
-0.181001
-0.170094
-0.158233
-0.145427
-0.131685
-0.117017
-0.101438
-0.084963
-0.0676097
-0.0493986
-0.0303536
-0.0105009
0.0101298
0.0315057
0.0535903
0.0763438
0.0997228
0.12368
0.148166
0.173124
0.198498
0.224226
0.250241
0.276477
0.302861
0.329319
0.355773
0.382144
0.40835
0.434307
0.45993
0.485133
0.509829
0.533932
0.557355
0.580012
0.60182
0.622697
0.642562
0.661341
0.678958
0.695347
0.710443
0.724187
0.736527
0.747415
0.756812
0.764686
0.771009
0.775766
0.778946
0.780548
0.780582
0.779063
0.776016
0.771476
0.765487
0.758101
0.749379
0.739392
0.728216
0.715941
0.70266
0.688477
0.673502
0.657852
0.641652
0.625034
0.608135
0.5911
0.574076
0.557219
0.540687
0.524646
0.509261
0.494703
0.481145
0.468759
0.457712
0.448165
0.440265
0.434131
0.429838
0.42738
0.426648
0.427537
0.429649
-0.000238489
0.00107793
3.77515e-05
-0.00316889
-0.0081629
-0.0147615
-0.0227637
-0.031939
-0.0420565
-0.0528965
-0.0642526
-0.075936
-0.0877756
-0.0996183
-0.111329
-0.122787
-0.133889
-0.144542
-0.154669
-0.164202
-0.173081
-0.181259
-0.188693
-0.195347
-0.201192
-0.206204
-0.210361
-0.213648
-0.21605
-0.217555
-0.218155
-0.217842
-0.21661
-0.214454
-0.211371
-0.207358
-0.202414
-0.196538
-0.18973
-0.181992
-0.173326
-0.163735
-0.153223
-0.141797
-0.129463
-0.116232
-0.102114
-0.0871223
-0.0712721
-0.0545811
-0.0370694
-0.0187602
0.000321063
0.0201455
0.0406811
0.0618928
0.083742
0.106187
0.129182
0.152678
0.176623
0.200961
0.225632
0.250575
0.275724
0.301009
0.326361
0.351703
0.376962
0.402058
0.426911
0.45144
0.475563
0.499198
0.522261
0.544672
0.566348
0.58721
0.607179
0.626181
0.644143
0.660996
0.676675
0.69112
0.704276
0.716093
0.726526
0.73554
0.743103
0.749192
0.753792
0.756893
0.758498
0.758613
0.757256
0.754452
0.750235
0.744647
0.73774
0.729571
0.72021
0.709731
0.698218
0.685763
0.672464
0.658426
0.643762
0.62859
0.613036
0.59723
0.581307
0.56541
0.549681
0.534271
0.519331
0.505016
0.491481
0.478882
0.467372
0.457099
0.448201
0.440802
0.435002
0.430865
0.428391
0.427524
0.428422
0.4311
0.00335487
0.00444878
0.0032495
2.66828e-05
-0.00481413
-0.0110938
-0.0186314
-0.0272238
-0.0366697
-0.0467757
-0.0573596
-0.0682518
-0.0792973
-0.090356
-0.101302
-0.112025
-0.122424
-0.132415
-0.14192
-0.150875
-0.159222
-0.166914
-0.173909
-0.18017
-0.185669
-0.19038
-0.194282
-0.197357
-0.199591
-0.200971
-0.201487
-0.20113
-0.199894
-0.197774
-0.194765
-0.190863
-0.186068
-0.180378
-0.173792
-0.166311
-0.157938
-0.148675
-0.138526
-0.127497
-0.115595
-0.102829
-0.0892093
-0.0747493
-0.0594633
-0.0433684
-0.0264844
-0.00883338
0.00955968
0.0286669
0.0484572
0.0688967
0.0899482
0.111571
0.133722
0.156353
0.179414
0.202851
0.226607
0.250621
0.274832
0.299171
0.323572
0.347963
0.37227
0.396418
0.420331
0.443931
0.467138
0.489874
0.51206
0.533616
0.554465
0.574531
0.593738
0.612015
0.629293
0.645505
0.660589
0.674489
0.687151
0.698529
0.708581
0.717271
0.724572
0.73046
0.734923
0.737952
0.73955
0.739724
0.738491
0.735877
0.731915
0.726646
0.720119
0.712393
0.703532
0.693611
0.682709
0.670915
0.658323
0.645034
0.631158
0.616806
0.602098
0.587159
0.572117
0.557107
0.542263
0.527727
0.513639
0.500145
0.487387
0.475508
0.464647
0.454939
0.446508
0.439466
0.433908
0.429907
0.427481
0.426633
0.427696
0.430896
0.00943846
0.0098734
0.00826032
0.00484106
-2.83029e-05
-0.00617613
-0.0134368
-0.0216321
-0.0305855
-0.0401269
-0.0500954
-0.0603398
-0.0707211
-0.0811122
-0.0913978
-0.101475
-0.111253
-0.12065
-0.129594
-0.138024
-0.145884
-0.153129
-0.159717
-0.165615
-0.170791
-0.175222
-0.178885
-0.181763
-0.183841
-0.185105
-0.185546
-0.185153
-0.18392
-0.18184
-0.17891
-0.175124
-0.170481
-0.164978
-0.158616
-0.151394
-0.143313
-0.134377
-0.124589
-0.113954
-0.102479
-0.0901725
-0.0770443
-0.0631066
-0.0483735
-0.0328615
-0.0165896
0.000421091
0.0181464
0.0365593
0.0556302
0.0753262
0.0956115
0.116447
0.137791
0.159597
0.181817
0.204398
0.227287
0.250425
0.273751
0.297201
0.32071
0.344208
0.367626
0.390891
0.413929
0.436665
0.459023
0.480927
0.502301
0.523068
0.543155
0.562487
0.580993
0.598604
0.615253
0.630877
0.645416
0.658816
0.671026
0.682
0.6917
0.700093
0.70715
0.712851
0.717183
0.720141
0.721725
0.721944
0.720815
0.718363
0.714621
0.709629
0.703435
0.696095
0.687674
0.67824
0.667874
0.656659
0.644686
0.632054
0.618866
0.60523
0.591259
0.577074
0.562795
0.54855
0.534467
0.520677
0.507314
0.494511
0.482401
0.471115
0.460783
0.451526
0.443459
0.436689
0.431308
0.427397
0.424995
0.424143
0.425266
0.428686
0.017733
0.0171634
0.0149024
0.0111074
0.00603652
-0.000151754
-0.00730693
-0.015273
-0.0238964
-0.0330282
-0.0425264
-0.0522578
-0.0620984
-0.0719337
-0.0816602
-0.0911838
-0.10042
-0.109295
-0.117741
-0.125701
-0.133122
-0.139961
-0.14618
-0.151744
-0.156625
-0.160798
-0.164243
-0.166941
-0.168877
-0.170039
-0.170415
-0.169995
-0.168772
-0.16674
-0.163893
-0.160228
-0.15574
-0.150427
-0.14429
-0.137326
-0.129538
-0.120927
-0.111496
-0.10125
-0.0901961
-0.0783407
-0.0656937
-0.0522664
-0.0380724
-0.0231274
-0.00744918
0.00894185
0.0260226
0.0437672
0.0621473
0.0811312
0.100685
0.12077
0.141347
0.162371
0.183796
0.205571
0.227644
0.249959
0.272457
0.295077
0.317754
0.340424
0.363017
0.385464
0.407694
0.429634
0.451211
0.472351
0.49298
0.513026
0.532416
0.55108
0.568947
0.585952
0.602029
0.617118
0.631162
0.644108
0.655906
0.666515
0.675895
0.684015
0.690849
0.696377
0.700586
0.703473
0.705037
0.705289
0.704244
0.701928
0.698373
0.693617
0.687708
0.6807
0.672656
0.663643
0.653738
0.643022
0.631583
0.619515
0.606917
0.593894
0.580554
0.567011
0.55338
0.539782
0.526338
0.513173
0.500409
0.488173
0.476587
0.465775
0.455855
0.44694
0.439138
0.43255
0.42727
0.423381
0.420937
0.420002
0.421029
0.424362
0.0279132
0.0260911
0.0229897
0.0186579
0.0132271
0.00684006
-0.000366463
-0.00825789
-0.0167017
-0.0255682
-0.0347335
-0.0440803
-0.0534992
-0.0628887
-0.072156
-0.0812161
-0.0899932
-0.0984188
-0.106432
-0.113979
-0.121013
-0.127492
-0.133381
-0.138646
-0.143262
-0.147204
-0.150453
-0.152991
-0.154804
-0.155877
-0.1562
-0.155765
-0.154561
-0.152584
-0.149827
-0.146286
-0.141956
-0.136836
-0.130924
-0.124218
-0.11672
-0.10843
-0.0993521
-0.0894891
-0.0788468
-0.0674324
-0.0552543
-0.0423232
-0.0286517
-0.0142545
0.000851595
0.0166471
0.03311
0.0502159
0.0679375
0.0862447
0.105105
0.124481
0.144335
0.164624
0.185304
0.206325
0.227638
0.249188
0.270919
0.29277
0.314682
0.336589
0.358425
0.380124
0.401616
0.422831
0.443698
0.464145
0.484101
0.503496
0.522258
0.540319
0.557613
0.574074
0.589639
0.60425
0.617851
0.630391
0.641822
0.652103
0.661196
0.669071
0.675703
0.681074
0.68517
0.687987
0.689528
0.6898
0.688822
0.686616
0.683214
0.678654
0.672983
0.666254
0.658526
0.649866
0.640348
0.63005
0.619058
0.607462
0.595358
0.582845
0.570029
0.557017
0.54392
0.530851
0.517927
0.505263
0.492976
0.481185
0.470004
0.459547
0.449925
0.441245
0.433607
0.427109
0.421841
0.417892
0.415322
0.414205
0.414979
0.417961
0.0396464
0.0363976
0.0323062
0.0273018
0.0213751
0.0146527
0.00725856
-0.000693142
-0.00908864
-0.017817
-0.0267708
-0.0358479
-0.0449527
-0.0539963
-0.0628962
-0.0715771
-0.0799713
-0.0880172
-0.09566
-0.102851
-0.109547
-0.11571
-0.121308
-0.126309
-0.130691
-0.13443
-0.137507
-0.139905
-0.141612
-0.142613
-0.142898
-0.142458
-0.141284
-0.13937
-0.13671
-0.133298
-0.129132
-0.124207
-0.118521
-0.112074
-0.104864
-0.0968935
-0.0881632
-0.0786767
-0.0684389
-0.0574558
-0.0457351
-0.0332866
-0.0201218
-0.00625436
0.00829993
0.0235228
0.0393934
0.0558887
0.0729827
0.0906468
0.108849
0.127556
0.146729
0.166328
0.18631
0.206628
0.227233
0.248074
0.269094
0.290237
0.311444
0.332652
0.353797
0.374813
0.395634
0.416191
0.436416
0.456238
0.475588
0.494398
0.512598
0.530121
0.546903
0.56288
0.57799
0.592177
0.605385
0.617565
0.62867
0.638661
0.6475
0.655158
0.66161
0.666838
0.67083
0.673582
0.675096
0.67538
0.674451
0.672332
0.669054
0.664655
0.659178
0.652677
0.64521
0.63684
0.627641
0.617687
0.607062
0.595853
0.584152
0.572055
0.559663
0.547079
0.534409
0.52176
0.509243
0.496969
0.485046
0.473587
0.462698
0.452487
0.443058
0.43451
0.426939
0.420439
0.415096
0.410999
0.40821
0.406808
0.407182
0.409599
0.052617
0.0478263
0.0426331
0.0368459
0.0303098
0.0231363
0.0154384
0.00731123
-0.00115016
-0.00985131
-0.0187005
-0.0276099
-0.0364973
-0.0452849
-0.0539013
-0.0622804
-0.0703627
-0.0780938
-0.085425
-0.0923131
-0.0987196
-0.10461
-0.109955
-0.114728
-0.118906
-0.122468
-0.125398
-0.127679
-0.129299
-0.130244
-0.130506
-0.130074
-0.128941
-0.1271
-0.124545
-0.12127
-0.117271
-0.112545
-0.107089
-0.100901
-0.0939796
-0.0863255
-0.0779398
-0.0688248
-0.0589845
-0.048424
-0.0371502
-0.0251716
-0.0124987
0.000855824
0.0148775
0.0295493
0.0448518
0.0607631
0.0772588
0.0943116
0.111891
0.129965
0.148497
0.167449
0.186778
0.20644
0.226388
0.246571
0.266936
0.287427
0.307987
0.328556
0.34907
0.369467
0.389681
0.409645
0.429292
0.448553
0.467362
0.485649
0.50335
0.520397
0.536726
0.552275
0.566985
0.580798
0.593662
0.605527
0.616348
0.626085
0.634702
0.642169
0.648463
0.653565
0.657465
0.660156
0.661642
0.66193
0.661037
0.658985
0.655805
0.651533
0.646213
0.639895
0.632637
0.624501
0.615557
0.605879
0.595547
0.584645
0.573264
0.561495
0.549435
0.537183
0.524841
0.512512
0.5003
0.488311
0.476647
0.465415
0.454715
0.444649
0.435313
0.426802
0.419207
0.412614
0.40711
0.402776
0.399678
0.397891
0.397739
0.399426
0.0665381
0.060132
0.0537562
0.0471002
0.0398626
0.0321423
0.0240426
0.015641
0.00701516
-0.0017555
-0.0105941
-0.0194264
-0.0281823
-0.0367957
-0.0452049
-0.0533535
-0.0611897
-0.0686666
-0.0757421
-0.0823785
-0.0885416
-0.0942018
-0.0993328
-0.103911
-0.107916
-0.11133
-0.114137
-0.116323
-0.117876
-0.118784
-0.119037
-0.118628
-0.117548
-0.11579
-0.113349
-0.110218
-0.106394
-0.101871
-0.0966478
-0.0907206
-0.0840879
-0.0767495
-0.0687056
-0.0599578
-0.0505088
-0.040363
-0.0295262
-0.0180057
-0.00581093
0.00704688
0.0205543
0.0346956
0.0494528
0.0648057
0.080731
0.097203
0.114193
0.13167
0.149599
0.167944
0.186663
0.205715
0.225053
0.244629
0.264391
0.284284
0.304254
0.324241
0.344184
0.364021
0.383688
0.40312
0.422251
0.441014
0.459343
0.47717
0.494431
0.51106
0.526993
0.542171
0.556533
0.570024
0.582591
0.594185
0.604762
0.614281
0.622707
0.630011
0.636169
0.641163
0.644982
0.647619
0.649078
0.649365
0.648497
0.646496
0.643391
0.639218
0.634019
0.627844
0.620748
0.612794
0.604047
0.594582
0.584474
0.573808
0.562668
0.551146
0.539333
0.527325
0.515219
0.503116
0.491113
0.479311
0.467809
0.456707
0.446099
0.436082
0.426747
0.418183
0.410475
0.403706
0.397956
0.393302
0.389809
0.387549
0.386767
0.387598
0.0811496
0.0730847
0.0654711
0.0578807
0.0498685
0.0415232
0.0329402
0.0241806
0.0153063
0.00638235
-0.00252796
-0.0113629
-0.020064
-0.0285763
-0.0368478
-0.044831
-0.0524821
-0.0597616
-0.0666339
-0.0730665
-0.0790308
-0.0845013
-0.0894555
-0.0938731
-0.0977365
-0.10103
-0.10374
-0.105853
-0.10736
-0.108248
-0.108511
-0.108139
-0.107125
-0.105462
-0.103144
-0.100167
-0.0965232
-0.09221
-0.0872231
-0.0815594
-0.0752167
-0.0681935
-0.0604895
-0.0521051
-0.0430422
-0.033304
-0.0228952
-0.0118218
-9.20994e-05
0.012284
0.0252944
0.0389248
0.0531587
0.0679773
0.0833589
0.0992791
0.115711
0.132625
0.149988
0.167764
0.185916
0.204401
0.223175
0.242191
0.2614
0.280748
0.300181
0.319641
0.339069
0.358405
0.377584
0.396544
0.415218
0.433542
0.45145
0.468876
0.485755
0.502023
0.517617
0.532477
0.546543
0.559761
0.572077
0.583444
0.593816
0.603154
0.611422
0.618591
0.624637
0.629541
0.633292
0.635884
0.637319
0.637603
0.636753
0.634789
0.631739
0.62764
0.622531
0.616463
0.609488
0.601667
0.593066
0.583755
0.57381
0.563311
0.552342
0.54099
0.529344
0.517498
0.505544
0.493578
0.481695
0.469991
0.45856
0.447497
0.436892
0.426835
0.417414
0.408712
0.400809
0.393783
0.387709
0.382658
0.378693
0.375882
0.374386
0.374268
0.0962176
0.0864713
0.077583
0.0690105
0.0601676
0.0511345
0.0420013
0.0328137
0.0236197
0.0144705
0.00541723
-0.00349024
-0.0122045
-0.0206809
-0.0288772
-0.0367541
-0.0442761
-0.0514109
-0.0581287
-0.0644034
-0.0702112
-0.0755312
-0.0803445
-0.0846346
-0.0883867
-0.0915878
-0.0942258
-0.0962902
-0.0977713
-0.0986601
-0.0989486
-0.0986294
-0.0976954
-0.0961401
-0.0939573
-0.0911414
-0.0876872
-0.0835896
-0.0788444
-0.0734479
-0.0673971
-0.0606897
-0.0533245
-0.0453007
-0.0366194
-0.0272826
-0.0172937
-0.00665744
0.00461924
0.0165277
0.0290573
0.0421952
0.0559265
0.0702338
0.0850969
0.100493
0.116397
0.13278
0.149611
0.166857
0.18448
0.20244
0.220694
0.239197
0.257901
0.276753
0.2957
0.314687
0.333655
0.352543
0.371291
0.389835
0.408111
0.426054
0.443599
0.460681
0.477235
0.493198
0.508507
0.523101
0.536922
0.549915
0.562027
0.573209
0.583417
0.59261
0.600753
0.607816
0.613774
0.618609
0.622308
0.624865
0.626281
0.626563
0.625725
0.623788
0.620778
0.616731
0.611687
0.605693
0.598801
0.591072
0.582568
0.573359
0.56352
0.553127
0.542262
0.53101
0.519459
0.507697
0.495816
0.483907
0.472061
0.460371
0.448926
0.437817
0.427131
0.416952
0.407364
0.398444
0.390269
0.382912
0.376441
0.370923
0.366418
0.362991
0.360715
0.359582
0.111529
0.100095
0.0899098
0.0803216
0.0706053
0.0608351
0.0510974
0.0414243
0.0318505
0.022415
0.0131578
0.00411697
-0.00467022
-0.0131687
-0.0213455
-0.02917
-0.0366141
-0.0436524
-0.0502616
-0.0564212
-0.0621126
-0.0673194
-0.0720269
-0.0762218
-0.0798926
-0.0830288
-0.0856206
-0.0876593
-0.0891368
-0.0900454
-0.0903781
-0.090128
-0.0892888
-0.087854
-0.0858177
-0.0831741
-0.0799177
-0.0760432
-0.0715456
-0.0664207
-0.0606649
-0.0542747
-0.0472479
-0.0395831
-0.0312799
-0.0223391
-0.0127629
-0.0025548
0.00827978
0.0197336
0.0317974
0.0444601
0.0577083
0.0715258
0.0858943
0.100793
0.116197
0.13208
0.148413
0.165163
0.182295
0.19977
0.217547
0.23558
0.253824
0.272228
0.290739
0.309303
0.327863
0.346359
0.36473
0.382913
0.400846
0.418464
0.435702
0.452496
0.46878
0.484492
0.499568
0.513949
0.527576
0.540392
0.552345
0.563386
0.57347
0.582555
0.590607
0.597593
0.60349
0.608277
0.611942
0.614477
0.615883
0.616166
0.615338
0.613421
0.61044
0.606428
0.601425
0.595478
0.588637
0.580961
0.572512
0.563358
0.553571
0.543228
0.532407
0.521192
0.509668
0.49792
0.486038
0.47411
0.462225
0.45047
0.438933
0.4277
0.416854
0.406475
0.396644
0.387433
0.378914
0.371157
0.364224
0.358175
0.353071
0.348972
0.345866
0.343669
0.126891
0.113773
0.102281
0.0916541
0.0810332
0.0704884
0.060103
0.0498973
0.0398941
0.030121
0.0206072
0.0113806
0.00246838
-0.00610345
-0.0143108
-0.0221312
-0.0295438
-0.03653
-0.0430728
-0.0491576
-0.0547705
-0.0598997
-0.0645347
-0.068666
-0.0722848
-0.0753833
-0.0779543
-0.0799909
-0.0814866
-0.0824352
-0.0828305
-0.0826667
-0.0819376
-0.0806374
-0.0787601
-0.0763
-0.0732511
-0.0696077
-0.0653647
-0.0605169
-0.0550597
-0.0489891
-0.0423016
-0.0349949
-0.0270673
-0.0185183
-0.00934865
0.000439273
0.0108415
0.0218524
0.0334645
0.045668
0.0584509
0.071799
0.0856953
0.10012
0.115052
0.130465
0.146331
0.162619
0.179296
0.196324
0.213662
0.231269
0.249097
0.267098
0.285221
0.303412
0.321614
0.339768
0.357814
0.375691
0.393335
0.410682
0.427668
0.444227
0.460296
0.47581
0.490707
0.504926
0.518407
0.531095
0.542935
0.553879
0.56388
0.572896
0.58089
0.587832
0.593695
0.598459
0.602109
0.604638
0.606045
0.606334
0.605519
0.603618
0.600657
0.596667
0.591688
0.585764
0.578945
0.571289
0.562857
0.553716
0.543935
0.53359
0.522758
0.51152
0.49996
0.488163
0.476212
0.464196
0.452199
0.440307
0.428604
0.417173
0.406094
0.395445
0.385299
0.375728
0.3668
0.358579
0.351123
0.344488
0.338732
0.333917
0.32994
0.326647
0.142127
0.127338
0.114536
0.102856
0.0913091
0.0799614
0.0688948
0.058119
0.0476457
0.0374923
0.0276777
0.0182201
0.00913774
0.000447448
-0.00783493
-0.0156944
-0.0231176
-0.0300923
-0.0366081
-0.0426551
-0.0482252
-0.0533108
-0.0579055
-0.0620033
-0.0655986
-0.0686864
-0.0712618
-0.0733199
-0.0748558
-0.0758648
-0.0763418
-0.0762816
-0.0756788
-0.0745277
-0.0728229
-0.070558
-0.0677272
-0.0643243
-0.0603435
-0.0557791
-0.0506254
-0.0448777
-0.0385314
-0.031583
-0.0240294
-0.015869
-0.00710112
0.00227338
0.012252
0.0228306
0.0340034
0.0457623
0.0580967
0.0709941
0.0844392
0.0984143
0.112899
0.127868
0.143297
0.159156
0.175411
0.192028
0.208967
0.226187
0.243642
0.261284
0.279065
0.296929
0.314821
0.332684
0.350457
0.368079
0.385486
0.402616
0.419402
0.435781
0.451687
0.467057
0.481826
0.495934
0.50932
0.521927
0.533701
0.544592
0.554551
0.563537
0.571511
0.578442
0.5843
0.589066
0.592724
0.595265
0.596686
0.596992
0.596194
0.59431
0.591364
0.587387
0.582417
0.576497
0.569678
0.562013
0.553565
0.544398
0.534581
0.524188
0.513295
0.501982
0.490329
0.47842
0.466339
0.45417
0.441995
0.429899
0.417962
0.406265
0.394885
0.383897
0.373372
0.363377
0.353979
0.345236
0.337203
0.32993
0.323479
0.317908
0.313031
0.30862
0.157074
0.140631
0.126523
0.113784
0.101297
0.0891261
0.0773532
0.0659781
0.0550017
0.0444326
0.03428
0.0245533
0.0152615
0.00641332
-0.00198308
-0.00992034
-0.0173921
-0.0243926
-0.030917
-0.0369612
-0.0425219
-0.0475961
-0.0521811
-0.0562746
-0.0598742
-0.0629776
-0.0655822
-0.0676852
-0.0692834
-0.0703735
-0.0709515
-0.071013
-0.0705531
-0.0695668
-0.0680482
-0.0659913
-0.0633899
-0.0602376
-0.0565278
-0.0522539
-0.0474098
-0.0419892
-0.035987
-0.0293981
-0.0222183
-0.0144444
-0.0060746
0.00289195
0.0124543
0.02261
0.0333547
0.044682
0.0565832
0.0690472
0.0820606
0.0956072
0.109668
0.124221
0.13924
0.154699
0.170566
0.186806
0.203382
0.220253
0.237375
0.254701
0.272183
0.289766
0.307396
0.325015
0.342565
0.359982
0.377205
0.394169
0.410809
0.427059
0.442856
0.458133
0.472826
0.486874
0.500214
0.51279
0.524545
0.535427
0.545388
0.554384
0.562376
0.56933
0.575217
0.580013
0.583704
0.586277
0.58773
0.588065
0.587293
0.585429
0.582498
0.578529
0.573557
0.567627
0.560787
0.553091
0.544597
0.535372
0.525481
0.514999
0.504
0.492561
0.480765
0.46869
0.456421
0.444038
0.431624
0.41926
0.407026
0.395
0.383255
0.371866
0.3609
0.350424
0.340498
0.33118
0.32252
0.314566
0.30738
0.301022
0.29522
0.289676
0.171581
0.153505
0.1381
0.124302
0.110866
0.0978589
0.0853613
0.0733643
0.061859
0.0508455
0.0403243
0.0302961
0.0207615
0.0117213
0.00317642
-0.00487313
-0.0124276
-0.0194875
-0.0260536
-0.0321273
-0.0377098
-0.0428028
-0.0474074
-0.0515246
-0.0551555
-0.0583002
-0.0609585
-0.0631298
-0.0648125
-0.0660046
-0.0667032
-0.0669048
-0.0666052
-0.0657995
-0.064482
-0.0626468
-0.0602871
-0.0573962
-0.0539668
-0.0499919
-0.0454641
-0.0403764
-0.0347221
-0.0284951
-0.02169
-0.0143019
-0.00632762
0.00223511
0.0113872
0.0211278
0.0314542
0.0423617
0.0538433
0.0658897
0.0784891
0.0916271
0.105286
0.119446
0.134083
0.14917
0.164679
0.180575
0.196822
0.213381
0.230209
0.24726
0.264484
0.281831
0.299244
0.316667
0.334041
0.351303
0.368391
0.38524
0.401785
0.41796
0.433699
0.448935
0.463605
0.477643
0.490989
0.503582
0.515365
0.526286
0.536293
0.545342
0.553392
0.560406
0.566355
0.571213
0.574963
0.577593
0.579098
0.579479
0.578744
0.576909
0.573996
0.570032
0.565055
0.559104
0.552228
0.54448
0.535917
0.526605
0.516608
0.506
0.494854
0.483247
0.471258
0.458968
0.446456
0.433805
0.421096
0.408406
0.395816
0.3834
0.371232
0.359383
0.34792
0.336906
0.3264
0.316458
0.307127
0.298451
0.290496
0.283323
0.276578
0.269893
0.185507
0.165822
0.149133
0.134278
0.119892
0.106041
0.092806
0.0801703
0.0681162
0.0566355
0.0457204
0.0353634
0.0255576
0.0162963
0.00757278
-0.00061958
-0.00828738
-0.0154371
-0.0220752
-0.0282082
-0.033842
-0.0389824
-0.0436343
-0.0478023
-0.0514905
-0.0547015
-0.0574377
-0.0597004
-0.0614897
-0.0628048
-0.063644
-0.0640047
-0.0638832
-0.0632747
-0.0621738
-0.0605744
-0.0584696
-0.0558521
-0.0527139
-0.049047
-0.0448435
-0.0400952
-0.0347942
-0.0289328
-0.0225043
-0.0155027
-0.00792291
0.000238862
0.00898532
0.0183172
0.0282336
0.0387313
0.0498053
0.0614482
0.0736499
0.0863975
0.0996753
0.113464
0.127743
0.142486
0.157665
0.173247
0.189199
0.205481
0.222052
0.238865
0.255874
0.273026
0.290266
0.307539
0.324783
0.341939
0.358942
0.375726
0.392228
0.408378
0.424111
0.439359
0.454056
0.468137
0.481539
0.4942
0.506061
0.517067
0.527167
0.536312
0.544461
0.551576
0.557623
0.562578
0.566419
0.569133
0.570713
0.571159
0.570478
0.568683
0.565795
0.561841
0.556855
0.550877
0.543955
0.53614
0.527489
0.518065
0.507935
0.497169
0.48584
0.474024
0.461801
0.449248
0.436447
0.423477
0.410418
0.397349
0.384347
0.371487
0.35884
0.346477
0.334464
0.322861
0.311726
0.301115
0.291071
0.281637
0.272882
0.26487
0.257167
0.249336
0.198721
0.177451
0.159494
0.14359
0.128255
0.113556
0.0995768
0.0862908
0.0736731
0.0617071
0.0503777
0.0396699
0.0295692
0.0200614
0.0111329
0.00277094
-0.00503755
-0.0123047
-0.0190427
-0.0252625
-0.0309748
-0.0361894
-0.0409151
-0.0451599
-0.0489304
-0.0522324
-0.0550703
-0.0574474
-0.0593652
-0.0608245
-0.0618247
-0.0623638
-0.0624385
-0.0620445
-0.0611764
-0.0598281
-0.0579921
-0.0556607
-0.0528253
-0.0494771
-0.0456071
-0.0412058
-0.0362642
-0.0307735
-0.0247252
-0.0181119
-0.0109269
-0.00316471
0.00517913
0.0141071
0.0236199
0.0337164
0.0443934
0.0556451
0.0674634
0.079837
0.0927519
0.106191
0.120134
0.134557
0.149433
0.164732
0.180419
0.196457
0.212805
0.229419
0.246251
0.263249
0.280359
0.297525
0.314687
0.331783
0.348749
0.365519
0.382026
0.398204
0.413983
0.429295
0.444072
0.458248
0.471757
0.484537
0.496526
0.507667
0.517907
0.527196
0.535489
0.542745
0.548931
0.554018
0.557984
0.560813
0.562496
0.563031
0.562423
0.560684
0.557832
0.553894
0.548903
0.542897
0.535923
0.52803
0.519276
0.509723
0.499435
0.488483
0.476939
0.46488
0.452383
0.439527
0.426391
0.413055
0.399599
0.3861
0.372635
0.359278
0.346102
0.333174
0.320559
0.30832
0.296512
0.285188
0.274394
0.264168
0.254585
0.245713
0.237038
0.228056
0.211095
0.188269
0.169061
0.152117
0.13584
0.120294
0.105566
0.0916228
0.0784307
0.0659661
0.0542065
0.0431298
0.032714
0.0229382
0.0137824
0.00522707
-0.00274652
-0.0101561
-0.0170191
-0.0233512
-0.0291675
-0.0344817
-0.0393064
-0.0436526
-0.04753
-0.0509469
-0.0539099
-0.0564239
-0.0584924
-0.0601174
-0.0612991
-0.0620362
-0.0623259
-0.0621643
-0.0615461
-0.0604647
-0.0589125
-0.0568809
-0.0543611
-0.051343
-0.0478167
-0.0437716
-0.0391971
-0.0340832
-0.0284201
-0.0221986
-0.0154102
-0.00804765
-0.000105001
0.00842207
0.0175363
0.0272384
0.037527
0.0483982
0.0598456
0.0718597
0.0844284
0.097536
0.111164
0.12529
0.139889
0.15493
0.170382
0.186208
0.202368
0.218817
0.235509
0.252393
0.269414
0.286517
0.30364
0.320723
0.337699
0.354504
0.371068
0.387324
0.4032
0.418629
0.433539
0.447863
0.461533
0.474484
0.486653
0.49798
0.50841
0.517891
0.526374
0.533817
0.540185
0.545444
0.549572
0.55255
0.554367
0.555018
0.554507
0.552844
0.550045
0.546135
0.541146
0.535115
0.528086
0.52011
0.511243
0.501544
0.49108
0.479919
0.468134
0.455801
0.442995
0.429798
0.416287
0.402542
0.388643
0.374668
0.360693
0.346792
0.333036
0.319495
0.306233
0.293312
0.280787
0.268712
0.257131
0.246082
0.235646
0.225894
0.216235
0.206099
0.222512
0.198157
0.177717
0.159747
0.142534
0.126146
0.11067
0.0960653
0.0822919
0.0693192
0.0571174
0.0456571
0.0349099
0.0248481
0.0154453
0.00667589
-0.00148449
-0.00905916
-0.0160701
-0.022538
-0.028482
-0.0339198
-0.0388674
-0.0433389
-0.0473469
-0.0509021
-0.0540131
-0.0566866
-0.0589279
-0.0607399
-0.0621238
-0.063079
-0.0636032
-0.0636927
-0.0633419
-0.0625441
-0.0612915
-0.0595748
-0.0573843
-0.054709
-0.0515378
-0.0478591
-0.0436609
-0.0389316
-0.03366
-0.0278351
-0.0214467
-0.0144858
-0.00694462
0.00118304
0.00990187
0.0192146
0.0291215
0.0396208
0.0507078
0.0623751
0.0746121
0.087405
0.100737
0.114587
0.128931
0.14374
0.158985
0.174628
0.19063
0.206949
0.223537
0.240344
0.257317
0.274398
0.291527
0.308642
0.325676
0.342564
0.359235
0.375619
0.391646
0.407243
0.42234
0.436865
0.45075
0.463926
0.476329
0.487896
0.498569
0.508291
0.517015
0.524693
0.531287
0.536763
0.541094
0.544259
0.546245
0.547044
0.546658
0.545095
0.542369
0.538504
0.533528
0.52748
0.5204
0.51234
0.503352
0.493499
0.482843
0.471454
0.459405
0.44677
0.433627
0.420054
0.406131
0.391939
0.377556
0.363061
0.348531
0.33404
0.319661
0.305462
0.291508
0.277862
0.26458
0.251716
0.239313
0.227411
0.216096
0.205446
0.194791
0.183496
0.232858
0.207003
0.185352
0.166369
0.148231
0.131007
0.114786
0.0995195
0.0851615
0.0716742
0.0590211
0.0471661
0.0360742
0.0257112
0.0160447
0.00704314
-0.00132333
-0.00908327
-0.0162633
-0.0228887
-0.0289827
-0.0345666
-0.0396598
-0.0442796
-0.0484411
-0.0521574
-0.0554391
-0.0582947
-0.0607307
-0.0627513
-0.0643584
-0.0655522
-0.0663309
-0.0666905
-0.0666257
-0.0661293
-0.0651931
-0.0638071
-0.0619607
-0.0596423
-0.0568391
-0.0535383
-0.0497269
-0.0453915
-0.0405193
-0.0350975
-0.0291142
-0.0225586
-0.015421
-0.00769321
0.000631476
0.00955767
0.0190878
0.0292218
0.039957
0.0512878
0.0632056
0.0756984
0.0887507
0.102343
0.116453
0.131055
0.146116
0.161604
0.177479
0.1937
0.210218
0.226986
0.243948
0.261049
0.278226
0.295417
0.312556
0.329574
0.346402
0.362966
0.379195
0.395015
0.410353
0.425135
0.43929
0.452747
0.465439
0.477301
0.48827
0.49829
0.507306
0.51527
0.522141
0.52788
0.532459
0.535853
0.538047
0.53903
0.538802
0.537367
0.534739
0.530939
0.525995
0.51994
0.512818
0.504676
0.495568
0.485553
0.474696
0.463065
0.450733
0.437774
0.424266
0.410288
0.395921
0.381246
0.366341
0.351286
0.33616
0.321037
0.305991
0.291091
0.276403
0.261992
0.247914
0.234225
0.220968
0.208184
0.195966
0.184398
0.172734
0.160274
0.242022
0.214697
0.191857
0.171877
0.152827
0.134776
0.117814
0.101889
0.0869455
0.0729401
0.0598295
0.0475714
0.0361241
0.0254475
0.015503
0.00625348
-0.00233623
-0.0102995
-0.0176681
-0.024471
-0.0307357
-0.0364872
-0.0417479
-0.0465381
-0.0508755
-0.0547751
-0.0582499
-0.0613098
-0.0639626
-0.0662135
-0.0680652
-0.0695187
-0.0705721
-0.0712218
-0.0714621
-0.0712857
-0.0706837
-0.0696455
-0.0681594
-0.0662127
-0.0637917
-0.0608821
-0.0574695
-0.0535389
-0.0490756
-0.0440651
-0.0384939
-0.0323491
-0.0256191
-0.0182935
-0.0103638
-0.00182328
0.00733254
0.0171056
0.0274953
0.038498
0.0501069
0.0623119
0.075099
0.0884509
0.102346
0.11676
0.131663
0.147021
0.162797
0.178949
0.195431
0.212193
0.229183
0.246342
0.263609
0.280921
0.29821
0.315407
0.33244
0.349236
0.36572
0.381817
0.397451
0.412546
0.427028
0.440824
0.453863
0.466077
0.4774
0.487773
0.497137
0.505442
0.512642
0.518697
0.523572
0.527242
0.529687
0.530895
0.530862
0.52959
0.52709
0.52338
0.518488
0.512445
0.505293
0.497077
0.487852
0.477675
0.466611
0.454728
0.442098
0.428796
0.414901
0.400493
0.385652
0.370461
0.354999
0.339348
0.323587
0.307792
0.292038
0.276397
0.260937
0.245721
0.23081
0.21626
0.202117
0.188422
0.175276
0.162771
0.150085
0.13645
0.2499
0.221134
0.197127
0.176169
0.15622
0.137353
0.119659
0.103079
0.0875518
0.0730271
0.0594555
0.0467881
0.0349773
0.0239767
0.0137422
0.00423103
-0.00459709
-0.0127804
-0.020355
-0.0273542
-0.0338093
-0.0397485
-0.0451976
-0.0501796
-0.0547145
-0.0588196
-0.0625095
-0.0657959
-0.0686874
-0.0711905
-0.0733087
-0.0750432
-0.0763924
-0.0773527
-0.0779184
-0.0780815
-0.0778325
-0.0771602
-0.0760517
-0.0744932
-0.07247
-0.0699664
-0.0669661
-0.0634527
-0.0594096
-0.0548207
-0.0496705
-0.043944
-0.0376276
-0.0307088
-0.0231771
-0.0150235
-0.00624168
0.00317264
0.0132208
0.0239012
0.0352091
0.0471361
0.0596702
0.0727956
0.0864927
0.100738
0.115502
0.130754
0.146457
0.162569
0.179046
0.195837
0.212889
0.230145
0.247542
0.265018
0.282502
0.299925
0.317214
0.334293
0.351085
0.367514
0.3835
0.398966
0.413834
0.428028
0.441474
0.4541
0.465838
0.476624
0.486396
0.4951
0.502686
0.50911
0.514336
0.518332
0.521078
0.522556
0.522759
0.521688
0.51935
0.515763
0.510949
0.50494
0.497775
0.489499
0.480165
0.46983
0.458558
0.446416
0.433479
0.41982
0.40552
0.390659
0.375319
0.359582
0.343532
0.327251
0.310819
0.294315
0.277815
0.261394
0.245122
0.229064
0.213284
0.197839
0.182777
0.168143