/*--------------------------------*- C++ -*----------------------------------*\
  =========                 |
  \\      /  F ield         | OpenFOAM: The Open Source CFD Toolbox
   \\    /   O peration     | Website:  https://openfoam.org
    \\  /    A nd           | Version:  9
     \\/     M anipulation  |
\*---------------------------------------------------------------------------*/
FoamFile
{
    format      ascii;
    class       surfaceScalarField;
    location    "0.2";
    object      phi;
}
// * * * * * * * * * * * * * * * * * * * * * * * * * * * * * * * * * * * * * //

dimensions      [0 3 -1 0 0 0 0];

internalField   nonuniform List<scalar> 
32512
(
2.75636e-10
-2.76335e-10
1.1015e-09
-8.25757e-10
2.12768e-09
-1.02619e-09
3.07748e-09
-9.49871e-10
3.77978e-09
-7.02218e-10
4.13111e-09
-3.51442e-10
4.07257e-09
5.85031e-11
3.57423e-09
4.98344e-10
2.6255e-09
9.48796e-10
1.22836e-09
1.39706e-09
-6.06346e-10
1.83476e-09
-2.86242e-09
2.25605e-09
-5.51965e-09
2.65728e-09
-8.55564e-09
3.03601e-09
-1.19465e-08
3.39078e-09
-1.56674e-08
3.72101e-09
-1.96939e-08
4.02641e-09
-2.40012e-08
4.30724e-09
-2.85651e-08
4.56398e-09
-3.33623e-08
4.79724e-09
-3.83702e-08
5.00783e-09
-4.35668e-08
5.19663e-09
-4.89313e-08
5.36455e-09
-5.44439e-08
5.51251e-09
-6.00854e-08
5.6415e-09
-6.58378e-08
5.7524e-09
-7.16838e-08
5.84604e-09
-7.76069e-08
5.92321e-09
-8.35915e-08
5.98464e-09
-8.96226e-08
6.03103e-09
-9.56856e-08
6.06299e-09
-1.01767e-07
6.08107e-09
-1.07852e-07
6.08573e-09
-1.1393e-07
6.07733e-09
-1.19986e-07
6.05621e-09
-1.26009e-07
6.02264e-09
-1.31985e-07
5.97681e-09
-1.37904e-07
5.91882e-09
-1.43753e-07
5.84881e-09
-1.4952e-07
5.76681e-09
-1.55193e-07
5.67286e-09
-1.6076e-07
5.56693e-09
-1.66209e-07
5.44901e-09
-1.71528e-07
5.319e-09
-1.76704e-07
5.17683e-09
-1.81727e-07
5.02244e-09
-1.86583e-07
4.85576e-09
-1.91259e-07
4.67678e-09
-1.95745e-07
4.48546e-09
-2.00027e-07
4.28176e-09
-2.04092e-07
4.06571e-09
-2.0793e-07
3.83735e-09
-2.11526e-07
3.59682e-09
-2.14871e-07
3.34424e-09
-2.1795e-07
3.07981e-09
-2.20754e-07
2.80381e-09
-2.23271e-07
2.51657e-09
-2.25489e-07
2.2185e-09
-2.27399e-07
1.91004e-09
-2.28991e-07
1.59174e-09
-2.30255e-07
1.26418e-09
-2.31183e-07
9.28045e-10
-2.31767e-07
5.84103e-10
-2.32001e-07
2.33197e-10
-2.31877e-07
-1.2374e-10
-2.31391e-07
-4.8572e-10
-2.3054e-07
-8.51701e-10
-2.29319e-07
-1.22056e-09
-2.27728e-07
-1.59108e-09
-2.25766e-07
-1.96198e-09
-2.23434e-07
-2.33194e-09
-2.20734e-07
-2.6996e-09
-2.17671e-07
-3.06352e-09
-2.14249e-07
-3.42224e-09
-2.10474e-07
-3.77427e-09
-2.06356e-07
-4.11808e-09
-2.01904e-07
-4.45213e-09
-1.97129e-07
-4.77488e-09
-1.92045e-07
-5.0848e-09
-1.86664e-07
-5.38038e-09
-1.81004e-07
-5.66011e-09
-1.75082e-07
-5.92252e-09
-1.68915e-07
-6.16616e-09
-1.62526e-07
-6.3897e-09
-1.55934e-07
-6.59185e-09
-1.49162e-07
-6.77137e-09
-1.42235e-07
-6.92712e-09
-1.35177e-07
-7.05808e-09
-1.28014e-07
-7.16332e-09
-1.20772e-07
-7.24203e-09
-1.13478e-07
-7.29353e-09
-1.06161e-07
-7.31726e-09
-9.88483e-08
-7.31279e-09
-9.15684e-08
-7.27985e-09
-8.43501e-08
-7.21828e-09
-7.7222e-08
-7.12813e-09
-7.02124e-08
-7.00955e-09
-6.33495e-08
-6.8629e-09
-5.66608e-08
-6.68865e-09
-5.01733e-08
-6.48744e-09
-4.39132e-08
-6.26006e-09
-3.79057e-08
-6.00747e-09
-3.2175e-08
-5.73076e-09
-2.67438e-08
-5.43119e-09
-2.16336e-08
-5.11018e-09
-1.68643e-08
-4.76928e-09
-1.24541e-08
-4.41019e-09
-8.41931e-09
-4.03479e-09
-4.77416e-09
-3.64513e-09
-1.53072e-09
-3.24344e-09
1.3014e-09
-2.83212e-09
3.71524e-09
-2.41381e-09
5.70672e-09
-1.99145e-09
7.27499e-09
-1.56827e-09
8.42286e-09
-1.14788e-09
9.15723e-09
-7.34405e-10
9.48984e-09
-3.32633e-10
9.43812e-09
5.17515e-11
9.0263e-09
4.11864e-10
8.28711e-09
7.39203e-10
7.26412e-09
1.023e-09
6.01491e-09
1.24921e-09
4.61569e-09
1.39919e-09
3.16742e-09
1.44825e-09
1.80261e-09
1.36479e-09
6.93096e-10
1.10954e-09
4.97345e-11
6.43514e-10
4.98979e-11
8.26725e-10
-1.10303e-09
2.4567e-09
-2.45574e-09
4.28131e-09
-2.85083e-09
5.82108e-09
-2.48953e-09
6.72054e-09
-1.60169e-09
6.73548e-09
-3.66294e-10
5.70857e-09
1.0855e-09
3.54757e-09
2.65936e-09
2.07852e-10
4.28843e-09
-4.32056e-09
5.92555e-09
-1.00231e-08
7.53726e-09
-1.68673e-08
9.10025e-09
-2.48083e-08
1.05983e-08
-3.37927e-08
1.20204e-08
-4.37614e-08
1.33595e-08
-5.46519e-08
1.46115e-08
-6.63998e-08
1.57743e-08
-7.89402e-08
1.68476e-08
-9.22083e-08
1.78321e-08
-1.06141e-07
1.87295e-08
-1.20675e-07
1.95421e-08
-1.35751e-07
2.02726e-08
-1.51311e-07
2.0924e-08
-1.67297e-07
2.14993e-08
-1.83657e-07
2.20017e-08
-2.00339e-07
2.24342e-08
-2.17293e-07
2.27999e-08
-2.34472e-07
2.31017e-08
-2.51829e-07
2.3342e-08
-2.69321e-07
2.35234e-08
-2.86906e-07
2.36481e-08
-3.04543e-07
2.3718e-08
-3.22192e-07
2.37347e-08
-3.39814e-07
2.36999e-08
-3.57373e-07
2.36146e-08
-3.7483e-07
2.34799e-08
-3.9215e-07
2.32967e-08
-4.09297e-07
2.30654e-08
-4.26234e-07
2.27865e-08
-4.42928e-07
2.24603e-08
-4.59342e-07
2.20868e-08
-4.75441e-07
2.16661e-08
-4.9119e-07
2.11981e-08
-5.06554e-07
2.06828e-08
-5.21497e-07
2.012e-08
-5.35984e-07
1.95094e-08
-5.49979e-07
1.8851e-08
-5.63447e-07
1.81447e-08
-5.76352e-07
1.73905e-08
-5.88659e-07
1.65884e-08
-6.00332e-07
1.57388e-08
-6.11336e-07
1.48418e-08
-6.21637e-07
1.3898e-08
-6.31201e-07
1.29082e-08
-6.39995e-07
1.18732e-08
-6.47985e-07
1.07942e-08
-6.55141e-07
9.67237e-09
-6.61432e-07
8.50948e-09
-6.66829e-07
7.30736e-09
-6.71306e-07
6.06814e-09
-6.74836e-07
4.79427e-09
-6.77396e-07
3.4884e-09
-6.78966e-07
2.15352e-09
-6.79525e-07
7.92877e-10
-6.79059e-07
-5.8995e-10
-6.77554e-07
-1.99111e-09
-6.74999e-07
-3.4065e-09
-6.71388e-07
-4.83176e-09
-6.66717e-07
-6.26231e-09
-6.60985e-07
-7.69326e-09
-6.54198e-07
-9.11957e-09
-6.46361e-07
-1.0536e-08
-6.37488e-07
-1.19371e-08
-6.27593e-07
-1.33173e-08
-6.16696e-07
-1.4671e-08
-6.04822e-07
-1.59923e-08
-5.91998e-07
-1.72755e-08
-5.78258e-07
-1.85148e-08
-5.63639e-07
-1.97042e-08
-5.48181e-07
-2.08382e-08
-5.3193e-07
-2.1911e-08
-5.14936e-07
-2.29171e-08
-4.97251e-07
-2.38512e-08
-4.78932e-07
-2.47081e-08
-4.60041e-07
-2.5483e-08
-4.40641e-07
-2.61714e-08
-4.20799e-07
-2.67689e-08
-4.00586e-07
-2.72717e-08
-3.80073e-07
-2.76764e-08
-3.59335e-07
-2.79799e-08
-3.38449e-07
-2.81796e-08
-3.17492e-07
-2.82736e-08
-2.96545e-07
-2.82602e-08
-2.75686e-07
-2.81384e-08
-2.54997e-07
-2.79079e-08
-2.34556e-07
-2.75686e-08
-2.14444e-07
-2.71213e-08
-1.9474e-07
-2.65673e-08
-1.7552e-07
-2.59085e-08
-1.5686e-07
-2.51473e-08
-1.38833e-07
-2.42869e-08
-1.2151e-07
-2.33309e-08
-1.04957e-07
-2.22837e-08
-8.92381e-08
-2.11499e-08
-7.44131e-08
-1.99352e-08
-6.05368e-08
-1.86456e-08
-4.76592e-08
-1.72877e-08
-3.58251e-08
-1.58689e-08
-2.5073e-08
-1.43972e-08
-1.54352e-08
-1.28812e-08
-6.93675e-09
-1.13306e-08
4.05009e-10
-9.75558e-09
6.58127e-09
-8.16773e-09
1.15927e-08
-6.57971e-09
1.54506e-08
-5.00578e-09
1.81783e-08
-3.46206e-09
1.98127e-08
-1.9671e-09
2.0407e-08
-5.42538e-10
2.00329e-08
7.85915e-10
1.87848e-08
1.98728e-09
1.67841e-08
3.02366e-09
1.41852e-08
3.84817e-09
1.11818e-08
4.40257e-09
8.01442e-09
4.61571e-09
4.97382e-09
4.40534e-09
2.39759e-09
3.68555e-09
6.41452e-10
2.39932e-09
6.91475e-10
1.03058e-09
-2.13366e-09
2.8612e-09
-4.2863e-09
4.69825e-09
-4.68781e-09
5.95457e-09
-3.74584e-09
6.18317e-09
-1.83029e-09
5.06007e-09
7.56826e-10
2.36427e-09
3.78128e-09
-2.04298e-09
7.0665e-09
-8.23597e-09
1.04816e-08
-1.62402e-08
1.39298e-08
-2.60437e-08
1.73407e-08
-3.76066e-08
2.06632e-08
-5.0869e-08
2.38607e-08
-6.57561e-08
2.69075e-08
-8.2183e-08
2.97864e-08
-1.00058e-07
3.24863e-08
-1.19285e-07
3.50013e-08
-1.39766e-07
3.73287e-08
-1.61403e-07
3.94688e-08
-1.84097e-07
4.1424e-08
-2.07753e-07
4.3198e-08
-2.32276e-07
4.47958e-08
-2.57575e-07
4.62228e-08
-2.83561e-07
4.7485e-08
-3.10148e-07
4.85887e-08
-3.37253e-07
4.95399e-08
-3.64798e-07
5.03446e-08
-3.92705e-07
5.10087e-08
-4.20901e-07
5.15375e-08
-4.49313e-07
5.1936e-08
-4.77874e-07
5.22089e-08
-5.06516e-07
5.23601e-08
-5.35175e-07
5.23932e-08
-5.63786e-07
5.23114e-08
-5.92289e-07
5.21174e-08
-6.20622e-07
5.18131e-08
-6.48726e-07
5.14005e-08
-6.76541e-07
5.08808e-08
-7.0401e-07
5.0255e-08
-7.31073e-07
4.95238e-08
-7.57674e-07
4.86875e-08
-7.83754e-07
4.77464e-08
-8.09256e-07
4.67003e-08
-8.34123e-07
4.55493e-08
-8.58296e-07
4.42932e-08
-8.81719e-07
4.29318e-08
-9.04333e-07
4.1465e-08
-9.26081e-07
3.98928e-08
-9.46905e-07
3.82153e-08
-9.6675e-07
3.6433e-08
-9.85558e-07
3.45464e-08
-1.00327e-06
3.25566e-08
-1.01984e-06
3.04647e-08
-1.0352e-06
2.82726e-08
-1.04931e-06
2.59824e-08
-1.06212e-06
2.35967e-08
-1.07356e-06
2.11185e-08
-1.0836e-06
1.85517e-08
-1.0922e-06
1.59003e-08
-1.0993e-06
1.31692e-08
-1.10487e-06
1.03638e-08
-1.10887e-06
7.49002e-09
-1.11127e-06
4.55456e-09
-1.11204e-06
1.56458e-09
-1.11116e-06
-1.47211e-09
-1.1086e-06
-4.54709e-09
-1.10436e-06
-7.65137e-09
-1.09841e-06
-1.07754e-08
-1.09077e-06
-1.39092e-08
-1.08142e-06
-1.70421e-08
-1.07038e-06
-2.01633e-08
-1.05765e-06
-2.32612e-08
-1.04326e-06
-2.63241e-08
-1.02724e-06
-2.93401e-08
-1.00961e-06
-3.22967e-08
-9.90425e-07
-3.51817e-08
-9.69718e-07
-3.79824e-08
-9.47547e-07
-4.06864e-08
-9.2397e-07
-4.3281e-08
-8.99054e-07
-4.5754e-08
-8.72872e-07
-4.80932e-08
-8.45502e-07
-5.02867e-08
-8.1703e-07
-5.23231e-08
-7.87547e-07
-5.41913e-08
-7.57149e-07
-5.58811e-08
-7.25938e-07
-5.73825e-08
-6.9402e-07
-5.86865e-08
-6.61507e-07
-5.97848e-08
-6.28513e-07
-6.06701e-08
-5.95157e-07
-6.13359e-08
-5.6156e-07
-6.17767e-08
-5.27846e-07
-6.19882e-08
-4.94139e-07
-6.1967e-08
-4.60566e-07
-6.17111e-08
-4.27254e-07
-6.12196e-08
-3.9433e-07
-6.04927e-08
-3.61919e-07
-5.95321e-08
-3.30146e-07
-5.83406e-08
-2.99132e-07
-5.69224e-08
-2.68997e-07
-5.52829e-08
-2.39855e-07
-5.34289e-08
-2.11817e-07
-5.13685e-08
-1.8499e-07
-4.91109e-08
-1.59473e-07
-4.6667e-08
-1.3536e-07
-4.40486e-08
-1.12736e-07
-4.12691e-08
-9.16807e-08
-3.83431e-08
-7.22627e-08
-3.52869e-08
-5.45419e-08
-3.2118e-08
-3.85676e-08
-2.88556e-08
-2.43775e-08
-2.55206e-08
-1.19971e-08
-2.21361e-08
-1.43761e-09
-1.87272e-08
7.3045e-09
-1.53219e-08
1.425e-08
-1.19513e-08
1.94384e-08
-8.6505e-09
2.29309e-08
-5.45955e-09
2.48129e-08
-2.42454e-09
2.51981e-08
4.0071e-10
2.42327e-08
2.9527e-09
2.21005e-08
5.15585e-09
1.90287e-08
6.91987e-09
1.52939e-08
8.13741e-09
1.1226e-08
8.68366e-09
7.21022e-09
8.42131e-09
3.6807e-09
7.21522e-09
1.10518e-09
4.97466e-09
1.79672e-09
9.60411e-10
-3.09405e-09
2.5138e-09
-5.83976e-09
3.77666e-09
-5.95064e-09
4.10299e-09
-4.07227e-09
3.0014e-09
-7.28607e-10
1.08187e-10
3.65016e-09
-4.83248e-09
8.72187e-09
-1.19871e-08
1.42212e-08
-2.14503e-08
1.99447e-08
-3.32588e-08
2.57383e-08
-4.7404e-08
3.1486e-08
-6.38424e-08
3.71016e-08
-8.25038e-08
4.25221e-08
-1.03298e-07
4.77018e-08
-1.26121e-07
5.26092e-08
-1.50858e-07
5.72231e-08
-1.77387e-07
6.15308e-08
-2.05584e-07
6.55259e-08
-2.35322e-07
6.92069e-08
-2.66474e-07
7.2576e-08
-2.98915e-07
7.56381e-08
-3.32519e-07
7.84001e-08
-3.67166e-07
8.08702e-08
-4.02739e-07
8.30577e-08
-4.39122e-07
8.49721e-08
-4.76206e-07
8.66232e-08
-5.13882e-07
8.80205e-08
-5.52046e-07
8.91734e-08
-5.90599e-07
9.00906e-08
-6.29444e-07
9.07804e-08
-6.68485e-07
9.12502e-08
-7.07632e-07
9.15068e-08
-7.46795e-07
9.15562e-08
-7.85887e-07
9.14036e-08
-8.24823e-07
9.10535e-08
-8.63519e-07
9.05095e-08
-9.01894e-07
8.97747e-08
-9.39864e-07
8.88515e-08
-9.77351e-07
8.77415e-08
-1.01427e-06
8.64461e-08
-1.05055e-06
8.49661e-08
-1.08611e-06
8.33019e-08
-1.12086e-06
8.14539e-08
-1.15473e-06
7.9422e-08
-1.18765e-06
7.72063e-08
-1.21952e-06
7.48066e-08
-1.25028e-06
7.22231e-08
-1.27984e-06
6.94561e-08
-1.30813e-06
6.6506e-08
-1.33507e-06
6.3374e-08
-1.36059e-06
6.00613e-08
-1.3846e-06
5.65699e-08
-1.40704e-06
5.29023e-08
-1.42783e-06
4.90617e-08
-1.4469e-06
4.50522e-08
-1.46418e-06
4.08785e-08
-1.47961e-06
3.65462e-08
-1.49312e-06
3.20621e-08
-1.50465e-06
2.74335e-08
-1.51415e-06
2.26689e-08
-1.52157e-06
1.7778e-08
-1.52685e-06
1.27711e-08
-1.52995e-06
7.65981e-09
-1.53084e-06
2.45682e-09
-1.52949e-06
-2.82433e-09
-1.52587e-06
-8.16904e-09
-1.51996e-06
-1.35618e-08
-1.51175e-06
-1.8986e-08
-1.50123e-06
-2.44243e-08
-1.48842e-06
-2.98586e-08
-1.47331e-06
-3.527e-08
-1.45593e-06
-4.06388e-08
-1.43631e-06
-4.59449e-08
-1.41449e-06
-5.11676e-08
-1.3905e-06
-5.62858e-08
-1.3644e-06
-6.12784e-08
-1.33626e-06
-6.61238e-08
-1.30614e-06
-7.08006e-08
-1.27414e-06
-7.52875e-08
-1.24033e-06
-7.95632e-08
-1.20481e-06
-8.36072e-08
-1.1677e-06
-8.73992e-08
-1.1291e-06
-9.09196e-08
-1.08915e-06
-9.41499e-08
-1.04796e-06
-9.70722e-08
-1.00567e-06
-9.96699e-08
-9.62427e-07
-1.01928e-07
-9.1838e-07
-1.03831e-07
-8.73682e-07
-1.05368e-07
-8.28491e-07
-1.06528e-07
-7.82967e-07
-1.073e-07
-7.37277e-07
-1.07679e-07
-6.91586e-07
-1.07657e-07
-6.46064e-07
-1.07233e-07
-6.0088e-07
-1.06404e-07
-5.56202e-07
-1.05171e-07
-5.12197e-07
-1.03537e-07
-4.69032e-07
-1.01506e-07
-4.26867e-07
-9.90867e-08
-3.85862e-07
-9.62878e-08
-3.4617e-07
-9.31211e-08
-3.07938e-07
-8.96006e-08
-2.71307e-07
-8.57425e-08
-2.36408e-07
-8.15653e-08
-2.03367e-07
-7.70899e-08
-1.72297e-07
-7.23394e-08
-1.433e-07
-6.73394e-08
-1.1647e-07
-6.21177e-08
-9.18827e-08
-5.67051e-08
-6.96034e-08
-5.11348e-08
-4.96806e-08
-4.54435e-08
-3.21458e-08
-3.96708e-08
-1.70125e-08
-3.38606e-08
-4.27342e-09
-2.8061e-08
6.10075e-09
-2.23255e-08
1.41643e-08
-1.67141e-08
1.99993e-08
-1.12945e-08
2.37184e-08
-6.14366e-09
2.54694e-08
-1.35031e-09
2.54392e-08
2.98292e-09
2.38585e-08
6.73656e-09
2.10069e-08
9.77151e-09
1.72171e-08
1.19272e-08
1.28786e-08
1.3022e-08
8.43995e-09
1.28599e-08
4.40932e-09
1.1246e-08
1.36097e-09
8.02293e-09
3.1577e-09
7.18475e-10
-3.81252e-09
1.63576e-09
-6.75705e-09
1.86883e-09
-6.18373e-09
7.6017e-10
-2.9636e-09
-2.1927e-09
2.22431e-09
-7.36572e-09
8.82305e-09
-1.50273e-08
1.63835e-08
-2.53563e-08
2.45501e-08
-3.84564e-08
3.30448e-08
-5.43697e-08
4.16517e-08
-7.3089e-08
5.02051e-08
-9.45667e-08
5.85793e-08
-1.18725e-07
6.66801e-08
-1.45461e-07
7.4438e-08
-1.74655e-07
8.18037e-08
-2.06175e-07
8.87431e-08
-2.39879e-07
9.52346e-08
-2.75619e-07
1.01266e-07
-3.13245e-07
1.06832e-07
-3.52604e-07
1.11935e-07
-3.93545e-07
1.1658e-07
-4.35919e-07
1.20774e-07
-4.79579e-07
1.2453e-07
-5.2438e-07
1.27858e-07
-5.70181e-07
1.30774e-07
-6.16847e-07
1.33289e-07
-6.64245e-07
1.35418e-07
-7.12245e-07
1.37173e-07
-7.60722e-07
1.38568e-07
-8.09556e-07
1.39614e-07
-8.58629e-07
1.40322e-07
-9.07824e-07
1.40702e-07
-9.5703e-07
1.40763e-07
-1.00614e-06
1.40511e-07
-1.05504e-06
1.39955e-07
-1.10363e-06
1.39099e-07
-1.1518e-06
1.37948e-07
-1.19946e-06
1.36506e-07
-1.24649e-06
1.34775e-07
-1.2928e-06
1.32757e-07
-1.33829e-06
1.30455e-07
-1.38286e-06
1.27869e-07
-1.4264e-06
1.24999e-07
-1.46883e-06
1.21846e-07
-1.51003e-06
1.18411e-07
-1.54992e-06
1.14693e-07
-1.58839e-06
1.10693e-07
-1.62534e-06
1.06412e-07
-1.66069e-06
1.01851e-07
-1.69432e-06
9.70119e-08
-1.72616e-06
9.18974e-08
-1.7561e-06
8.65109e-08
-1.78406e-06
8.08564e-08
-1.80993e-06
7.49394e-08
-1.83365e-06
6.87662e-08
-1.85511e-06
6.23445e-08
-1.87425e-06
5.56832e-08
-1.89098e-06
4.87928e-08
-1.90523e-06
4.16849e-08
-1.91694e-06
3.43728e-08
-1.92603e-06
2.68712e-08
-1.93245e-06
1.91963e-08
-1.93616e-06
1.13659e-08
-1.9371e-06
3.39935e-09
-1.93524e-06
-4.68257e-09
-1.93056e-06
-1.28576e-08
-1.92302e-06
-2.11019e-08
-1.91261e-06
-2.93905e-08
-1.89934e-06
-3.76969e-08
-1.8832e-06
-4.59936e-08
-1.86422e-06
-5.42519e-08
-1.84242e-06
-6.24421e-08
-1.81783e-06
-7.05338e-08
-1.7905e-06
-7.84957e-08
-1.76049e-06
-8.62962e-08
-1.72787e-06
-9.3903e-08
-1.69271e-06
-1.01284e-07
-1.6551e-06
-1.08407e-07
-1.61515e-06
-1.15239e-07
-1.57296e-06
-1.21749e-07
-1.52866e-06
-1.27906e-07
-1.48238e-06
-1.3368e-07
-1.43426e-06
-1.3904e-07
-1.38445e-06
-1.4396e-07
-1.33311e-06
-1.48412e-07
-1.28041e-06
-1.52372e-07
-1.22652e-06
-1.55816e-07
-1.17163e-06
-1.58723e-07
-1.11592e-06
-1.61075e-07
-1.0596e-06
-1.62856e-07
-1.00285e-06
-1.64051e-07
-9.45874e-07
-1.64649e-07
-8.88889e-07
-1.64643e-07
-8.32094e-07
-1.64027e-07
-7.75699e-07
-1.62799e-07
-7.19909e-07
-1.60961e-07
-6.64931e-07
-1.58515e-07
-6.10966e-07
-1.55471e-07
-5.58213e-07
-1.5184e-07
-5.06866e-07
-1.47635e-07
-4.57113e-07
-1.42874e-07
-4.09134e-07
-1.3758e-07
-3.63101e-07
-1.31776e-07
-3.19176e-07
-1.25491e-07
-2.77509e-07
-1.18756e-07
-2.38242e-07
-1.11607e-07
-2.01497e-07
-1.04083e-07
-1.67388e-07
-9.62271e-08
-1.36008e-07
-8.80849e-08
-1.07435e-07
-7.97079e-08
-8.17272e-08
-7.11515e-08
-5.89217e-08
-6.24763e-08
-3.90335e-08
-5.37487e-08
-2.20529e-08
-4.50415e-08
-7.9432e-09
-3.64352e-08
3.36195e-09
-2.80193e-08
1.19613e-08
-1.98938e-08
1.79894e-08
-1.21718e-08
2.16202e-08
-4.98112e-09
2.3071e-08
1.5321e-09
2.26066e-08
7.20096e-09
2.05433e-08
1.18349e-08
1.72527e-08
1.52178e-08
1.31654e-08
1.71092e-08
8.77632e-09
1.7249e-08
4.65201e-09
1.53704e-08
1.4513e-09
1.12236e-08
4.609e-09
3.7019e-10
-4.18255e-09
3.9623e-10
-6.78323e-09
-7.43001e-10
-5.0444e-09
-3.67712e-09
-2.94478e-11
-8.89206e-09
7.43922e-09
-1.67542e-08
1.66853e-08
-2.75279e-08
2.71572e-08
-4.13901e-08
3.84124e-08
-5.8444e-08
5.00987e-08
-7.87304e-08
6.19381e-08
-1.02239e-07
7.37134e-08
-1.28916e-07
8.52569e-08
-1.58677e-07
9.64405e-08
-1.91407e-07
1.07169e-07
-2.26975e-07
1.17372e-07
-2.65232e-07
1.27e-07
-3.06019e-07
1.36021e-07
-3.49168e-07
1.44416e-07
-3.9451e-07
1.52174e-07
-4.41871e-07
1.59296e-07
-4.91078e-07
1.65786e-07
-5.41957e-07
1.71653e-07
-5.94338e-07
1.76911e-07
-6.48055e-07
1.81575e-07
-7.02943e-07
1.85662e-07
-7.58842e-07
1.89188e-07
-8.15597e-07
1.92172e-07
-8.73055e-07
1.94631e-07
-9.31068e-07
1.96582e-07
-9.89493e-07
1.98039e-07
-1.04819e-06
1.99018e-07
-1.10702e-06
1.99532e-07
-1.16585e-06
1.99593e-07
-1.22455e-06
1.9921e-07
-1.28299e-06
1.98394e-07
-1.34104e-06
1.97151e-07
-1.39858e-06
1.95489e-07
-1.45549e-06
1.93411e-07
-1.51164e-06
1.90923e-07
-1.56691e-06
1.88028e-07
-1.62118e-06
1.84727e-07
-1.67433e-06
1.81022e-07
-1.72625e-06
1.76915e-07
-1.77681e-06
1.72407e-07
-1.82589e-06
1.67498e-07
-1.87339e-06
1.62189e-07
-1.91918e-06
1.56481e-07
-1.96314e-06
1.50377e-07
-2.00517e-06
1.43878e-07
-2.04515e-06
1.36987e-07
-2.08296e-06
1.29708e-07
-2.11849e-06
1.22048e-07
-2.15165e-06
1.14012e-07
-2.18232e-06
1.05607e-07
-2.2104e-06
9.68449e-08
-2.23579e-06
8.77354e-08
-2.2584e-06
7.82919e-08
-2.27813e-06
6.85292e-08
-2.29491e-06
5.84644e-08
-2.30866e-06
4.81163e-08
-2.31929e-06
3.75059e-08
-2.32675e-06
2.66563e-08
-2.33098e-06
1.55927e-08
-2.33192e-06
4.34239e-09
-2.32954e-06
-7.06522e-09
-2.3238e-06
-1.85987e-08
-2.31467e-06
-3.02248e-08
-2.30216e-06
-4.19083e-08
-2.28624e-06
-5.36121e-08
-2.26694e-06
-6.52977e-08
-2.24426e-06
-7.6925e-08
-2.21825e-06
-8.84526e-08
-2.18895e-06
-9.98379e-08
-2.15641e-06
-1.11037e-07
-2.1207e-06
-1.22007e-07
-2.0819e-06
-1.32702e-07
-2.0401e-06
-1.43077e-07
-1.99542e-06
-1.53088e-07
-1.94797e-06
-1.6269e-07
-1.89788e-06
-1.71839e-07
-1.8453e-06
-1.80491e-07
-1.79037e-06
-1.88605e-07
-1.73327e-06
-1.9614e-07
-1.67417e-06
-2.03057e-07
-1.61327e-06
-2.0932e-07
-1.55075e-06
-2.14893e-07
-1.48682e-06
-2.19745e-07
-1.42169e-06
-2.23847e-07
-1.3556e-06
-2.27173e-07
-1.28875e-06
-2.29699e-07
-1.22139e-06
-2.31409e-07
-1.15376e-06
-2.32285e-07
-1.08609e-06
-2.32317e-07
-1.01862e-06
-2.31498e-07
-9.5159e-07
-2.29824e-07
-8.85251e-07
-2.27299e-07
-8.19839e-07
-2.23927e-07
-7.5559e-07
-2.19721e-07
-6.92735e-07
-2.14694e-07
-6.31501e-07
-2.08868e-07
-5.72107e-07
-2.02268e-07
-5.14763e-07
-1.94924e-07
-4.59669e-07
-1.86869e-07
-4.07015e-07
-1.78145e-07
-3.56976e-07
-1.68795e-07
-3.09714e-07
-1.58869e-07
-2.65376e-07
-1.48422e-07
-2.24089e-07
-1.37513e-07
-1.85965e-07
-1.26209e-07
-1.51092e-07
-1.14581e-07
-1.19538e-07
-1.02706e-07
-9.13459e-08
-9.06686e-08
-6.65325e-08
-7.85621e-08
-4.50867e-08
-6.64873e-08
-2.69666e-08
-5.45553e-08
-1.20968e-08
-4.2889e-08
-3.6601e-10
-3.16246e-08
8.37645e-09
-2.09142e-08
1.43237e-08
-1.09284e-08
1.77149e-08
-1.85909e-09
1.88386e-08
6.07723e-09
1.80365e-08
1.26369e-08
1.5707e-08
1.75474e-08
1.23096e-08
2.05066e-08
8.37241e-09
2.11862e-08
4.50402e-09
1.92388e-08
1.41833e-09
1.43093e-08
6.02733e-09
-4.34581e-11
-4.13916e-09
-1.08332e-09
-5.74326e-09
-3.84476e-09
-2.28285e-09
-8.89986e-09
5.02556e-09
-1.66959e-08
1.52353e-08
-2.75727e-08
2.7562e-08
-4.17758e-08
4.13602e-08
-5.94689e-08
5.61057e-08
-8.07455e-08
7.13753e-08
-1.05638e-07
8.68307e-08
-1.34129e-07
1.02204e-07
-1.66156e-07
1.17284e-07
-2.01624e-07
1.31909e-07
-2.40411e-07
1.45955e-07
-2.8237e-07
1.5933e-07
-3.27339e-07
1.71969e-07
-3.75144e-07
1.83826e-07
-4.25602e-07
1.94874e-07
-4.78524e-07
2.05096e-07
-5.33718e-07
2.1449e-07
-5.90991e-07
2.23059e-07
-6.5015e-07
2.30812e-07
-7.11004e-07
2.37766e-07
-7.73365e-07
2.43937e-07
-8.37049e-07
2.49345e-07
-9.01874e-07
2.54013e-07
-9.67662e-07
2.57961e-07
-1.03424e-06
2.6121e-07
-1.10144e-06
2.63782e-07
-1.1691e-06
2.65696e-07
-1.23705e-06
2.6697e-07
-1.30514e-06
2.67622e-07
-1.37321e-06
2.67665e-07
-1.44112e-06
2.67115e-07
-1.5087e-06
2.65981e-07
-1.57583e-06
2.64274e-07
-1.64234e-06
2.62003e-07
-1.7081e-06
2.59175e-07
-1.77297e-06
2.55794e-07
-1.83681e-06
2.51865e-07
-1.89948e-06
2.47392e-07
-1.96083e-06
2.42376e-07
-2.02074e-06
2.36821e-07
-2.07906e-06
2.30727e-07
-2.13566e-06
2.24097e-07
-2.1904e-06
2.16932e-07
-2.24315e-06
2.09234e-07
-2.29378e-06
2.01007e-07
-2.34216e-06
1.92252e-07
-2.38815e-06
1.82977e-07
-2.43162e-06
1.73186e-07
-2.47246e-06
1.62887e-07
-2.51054e-06
1.52089e-07
-2.54574e-06
1.40804e-07
-2.57794e-06
1.29044e-07
-2.60703e-06
1.16826e-07
-2.6329e-06
1.04168e-07
-2.65546e-06
9.10885e-08
-2.67461e-06
7.76118e-08
-2.69026e-06
6.37632e-08
-2.70232e-06
4.9571e-08
-2.71073e-06
3.5066e-08
-2.71542e-06
2.02822e-08
-2.71633e-06
5.25596e-09
-2.71343e-06
-9.97353e-09
-2.70666e-06
-2.53645e-08
-2.69601e-06
-4.08725e-08
-2.68147e-06
-5.6451e-08
-2.66303e-06
-7.20508e-08
-2.64071e-06
-8.76209e-08
-2.61452e-06
-1.03108e-07
-2.58452e-06
-1.18458e-07
-2.55074e-06
-1.33615e-07
-2.51326e-06
-1.4852e-07
-2.47215e-06
-1.63116e-07
-2.42751e-06
-1.77345e-07
-2.37944e-06
-1.91146e-07
-2.32807e-06
-2.04461e-07
-2.27352e-06
-2.17231e-07
-2.21596e-06
-2.29398e-07
-2.15555e-06
-2.40907e-07
-2.09245e-06
-2.517e-07
-2.02687e-06
-2.61726e-07
-1.95899e-06
-2.70933e-07
-1.88904e-06
-2.79272e-07
-1.81723e-06
-2.867e-07
-1.7438e-06
-2.93173e-07
-1.669e-06
-2.98654e-07
-1.59306e-06
-3.03108e-07
-1.51625e-06
-3.06507e-07
-1.43884e-06
-3.08825e-07
-1.36108e-06
-3.10042e-07
-1.28325e-06
-3.10144e-07
-1.20563e-06
-3.09122e-07
-1.12848e-06
-3.06973e-07
-1.05208e-06
-3.03697e-07
-9.76704e-07
-2.99305e-07
-9.02615e-07
-2.9381e-07
-8.30076e-07
-2.87233e-07
-7.59344e-07
-2.79601e-07
-6.90665e-07
-2.70947e-07
-6.24278e-07
-2.61311e-07
-5.60409e-07
-2.50738e-07
-4.99272e-07
-2.39282e-07
-4.41065e-07
-2.27002e-07
-3.85972e-07
-2.13962e-07
-3.34157e-07
-2.00237e-07
-2.85766e-07
-1.85904e-07
-2.40924e-07
-1.71052e-07
-1.9973e-07
-1.55774e-07
-1.62262e-07
-1.40174e-07
-1.28569e-07
-1.24362e-07
-9.86702e-08
-1.08461e-07
-7.2555e-08
-9.26025e-08
-5.01783e-08
-7.6932e-08
-3.14591e-08
-6.16082e-08
-1.62775e-08
-4.68062e-08
-4.47176e-09
-3.27199e-08
4.16423e-09
-1.95643e-08
9.88429e-09
-7.57912e-09
1.29929e-08
2.96863e-09
1.38484e-08
1.17814e-08
1.28669e-08
1.8529e-08
1.0527e-08
2.28466e-08
7.3782e-09
2.4335e-08
4.05422e-09
2.25628e-08
1.29567e-09
1.70679e-08
7.32298e-09
-4.95559e-10
-3.64355e-09
-2.71793e-09
-3.52092e-09
-7.2788e-09
2.27787e-09
-1.46734e-08
1.24202e-08
-2.52942e-08
2.5856e-08
-3.94399e-08
4.17078e-08
-5.73259e-08
5.92463e-08
-7.9093e-08
7.78727e-08
-1.04816e-07
9.70985e-08
-1.34514e-07
1.16528e-07
-1.68155e-07
1.35845e-07
-2.05667e-07
1.54796e-07
-2.46942e-07
1.73185e-07
-2.91847e-07
1.9086e-07
-3.40223e-07
2.07706e-07
-3.91894e-07
2.23641e-07
-4.46673e-07
2.38605e-07
-5.0436e-07
2.52561e-07
-5.64752e-07
2.65488e-07
-6.27639e-07
2.77377e-07
-6.92812e-07
2.88231e-07
-7.60058e-07
2.98059e-07
-8.2917e-07
3.06877e-07
-8.9994e-07
3.14707e-07
-9.72164e-07
3.21569e-07
-1.04564e-06
3.2749e-07
-1.12018e-06
3.32495e-07
-1.19557e-06
3.36608e-07
-1.27165e-06
3.39856e-07
-1.34821e-06
3.42261e-07
-1.42509e-06
3.43846e-07
-1.5021e-06
3.44632e-07
-1.57907e-06
3.44635e-07
-1.65583e-06
3.43874e-07
-1.73221e-06
3.42362e-07
-1.80805e-06
3.40112e-07
-1.88318e-06
3.37134e-07
-1.95744e-06
3.33437e-07
-2.03067e-06
3.29027e-07
-2.10272e-06
3.23912e-07
-2.17342e-06
3.18095e-07
-2.24263e-06
3.1158e-07
-2.31018e-06
3.0437e-07
-2.37592e-06
2.96467e-07
-2.43969e-06
2.87875e-07
-2.50136e-06
2.78596e-07
-2.56076e-06
2.68634e-07
-2.61774e-06
2.57993e-07
-2.67217e-06
2.46678e-07
-2.72389e-06
2.34696e-07
-2.77276e-06
2.22056e-07
-2.81864e-06
2.08767e-07
-2.86139e-06
1.94844e-07
-2.90089e-06
1.803e-07
-2.937e-06
1.65154e-07
-2.9696e-06
1.49425e-07
-2.99857e-06
1.33138e-07
-3.0238e-06
1.16318e-07
-3.04518e-06
9.89961e-08
-3.06262e-06
8.12049e-08
-3.07603e-06
6.2981e-08
-3.08533e-06
4.43642e-08
-3.09045e-06
2.53981e-08
-3.09132e-06
6.12921e-09
-3.0879e-06
-1.33922e-08
-3.08015e-06
-3.31127e-08
-3.06805e-06
-5.29758e-08
-3.05158e-06
-7.2922e-08
-3.03074e-06
-9.28889e-08
-3.00555e-06
-1.12812e-07
-2.97604e-06
-1.32623e-07
-2.94224e-06
-1.52253e-07
-2.90423e-06
-1.71631e-07
-2.86206e-06
-1.90684e-07
-2.81584e-06
-2.09339e-07
-2.76566e-06
-2.27521e-07
-2.71165e-06
-2.45156e-07
-2.65394e-06
-2.62168e-07
-2.59269e-06
-2.78484e-07
-2.52806e-06
-2.94031e-07
-2.46023e-06
-3.08737e-07
-2.38939e-06
-3.22533e-07
-2.31577e-06
-3.35351e-07
-2.23957e-06
-3.47128e-07
-2.16104e-06
-3.57801e-07
-2.08043e-06
-3.67315e-07
-1.99799e-06
-3.75616e-07
-1.91398e-06
-3.82657e-07
-1.8287e-06
-3.88395e-07
-1.74241e-06
-3.92792e-07
-1.65542e-06
-3.95817e-07
-1.56801e-06
-3.97446e-07
-1.4805e-06
-3.9766e-07
-1.39317e-06
-3.96447e-07
-1.30634e-06
-3.93804e-07
-1.22031e-06
-3.89733e-07
-1.13537e-06
-3.84245e-07
-1.05182e-06
-3.77359e-07
-9.6995e-07
-3.691e-07
-8.90047e-07
-3.59503e-07
-8.12383e-07
-3.48611e-07
-7.37221e-07
-3.36473e-07
-6.64811e-07
-3.23148e-07
-5.9539e-07
-3.08703e-07
-5.29179e-07
-2.93213e-07
-4.66379e-07
-2.76762e-07
-4.07175e-07
-2.59441e-07
-3.51726e-07
-2.41353e-07
-3.00172e-07
-2.22606e-07
-2.52625e-07
-2.03321e-07
-2.09169e-07
-1.83629e-07
-1.69862e-07
-1.63669e-07
-1.34727e-07
-1.43596e-07
-1.03755e-07
-1.23574e-07
-7.6901e-08
-1.03786e-07
-5.40806e-08
-8.44286e-08
-3.51694e-08
-6.57174e-08
-1.99992e-08
-4.789e-08
-8.35607e-09
-3.12075e-08
2.27085e-11
-1.59579e-08
5.45105e-09
-2.45972e-09
8.29711e-09
8.93535e-09
8.98702e-09
1.78391e-08
8.00995e-09
2.38237e-08
5.92585e-09
2.64191e-08
3.37763e-09
2.5111e-08
1.10923e-09
1.93363e-08
8.43221e-09
-9.69408e-10
-2.67416e-09
-4.4489e-09
-4.13952e-11
-1.09306e-08
8.75964e-09
-2.08221e-08
2.23117e-08
-3.44488e-08
3.94828e-08
-5.20583e-08
5.93173e-08
-7.38259e-08
8.10138e-08
-9.98608e-08
1.03908e-07
-1.30213e-07
1.27451e-07
-1.64881e-07
1.51196e-07
-2.03815e-07
1.74779e-07
-2.46928e-07
1.97909e-07
-2.941e-07
2.20357e-07
-3.45182e-07
2.41941e-07
-4.00003e-07
2.62527e-07
-4.58374e-07
2.82012e-07
-5.20093e-07
3.00324e-07
-5.84949e-07
3.17416e-07
-6.5272e-07
3.3326e-07
-7.23184e-07
3.47841e-07
-7.96114e-07
3.61161e-07
-8.71283e-07
3.73228e-07
-9.48466e-07
3.8406e-07
-1.02744e-06
3.93678e-07
-1.10798e-06
4.02108e-07
-1.18987e-06
4.09379e-07
-1.27289e-06
4.15519e-07
-1.35684e-06
4.20557e-07
-1.44151e-06
4.24524e-07
-1.52669e-06
4.27445e-07
-1.61219e-06
4.29348e-07
-1.69782e-06
4.30255e-07
-1.78337e-06
4.3019e-07
-1.86867e-06
4.29171e-07
-1.95352e-06
4.27216e-07
-2.03775e-06
4.2434e-07
-2.12117e-06
4.20555e-07
-2.20361e-06
4.15872e-07
-2.28488e-06
4.103e-07
-2.36481e-06
4.03846e-07
-2.44323e-06
3.96517e-07
-2.51997e-06
3.88317e-07
-2.59485e-06
3.7925e-07
-2.6677e-06
3.6932e-07
-2.73836e-06
3.58532e-07
-2.80665e-06
3.46889e-07
-2.87242e-06
3.34397e-07
-2.93548e-06
3.21061e-07
-2.9957e-06
3.0689e-07
-3.05289e-06
2.91892e-07
-3.10692e-06
2.76079e-07
-3.15761e-06
2.59465e-07
-3.20483e-06
2.42066e-07
-3.24844e-06
2.23901e-07
-3.28828e-06
2.04994e-07
-3.32422e-06
1.8537e-07
-3.35614e-06
1.65058e-07
-3.38392e-06
1.44094e-07
-3.40743e-06
1.22513e-07
-3.42659e-06
1.00358e-07
-3.44128e-06
7.76748e-08
-3.45143e-06
5.45121e-08
-3.45696e-06
3.09244e-08
-3.4578e-06
6.96973e-09
-3.4539e-06
-1.72897e-08
-3.44522e-06
-4.17877e-08
-3.43175e-06
-6.64545e-08
-3.41345e-06
-9.12166e-08
-3.39034e-06
-1.15997e-07
-3.36244e-06
-1.40716e-07
-3.32977e-06
-1.6529e-07
-3.29239e-06
-1.89634e-07
-3.25036e-06
-2.13661e-07
-3.20376e-06
-2.37282e-07
-3.1527e-06
-2.60405e-07
-3.09728e-06
-2.8294e-07
-3.03764e-06
-3.04796e-07
-2.97393e-06
-3.2588e-07
-2.90631e-06
-3.46102e-07
-2.83497e-06
-3.65372e-07
-2.7601e-06
-3.83604e-07
-2.68192e-06
-4.00711e-07
-2.60066e-06
-4.16612e-07
-2.51656e-06
-4.31228e-07
-2.42988e-06
-4.44484e-07
-2.34088e-06
-4.56311e-07
-2.24986e-06
-4.66644e-07
-2.15709e-06
-4.75425e-07
-2.06288e-06
-4.82601e-07
-1.96755e-06
-4.88127e-07
-1.8714e-06
-4.91964e-07
-1.77476e-06
-4.94082e-07
-1.67797e-06
-4.94459e-07
-1.58133e-06
-4.9308e-07
-1.4852e-06
-4.89941e-07
-1.38988e-06
-4.85046e-07
-1.29572e-06
-4.78407e-07
-1.20303e-06
-4.70047e-07
-1.11214e-06
-4.59998e-07
-1.02334e-06
-4.48303e-07
-9.36933e-07
-4.35014e-07
-8.53214e-07
-4.20192e-07
-7.72452e-07
-4.0391e-07
-6.94905e-07
-3.8625e-07
-6.20814e-07
-3.67304e-07
-5.504e-07
-3.47176e-07
-4.83863e-07
-3.25978e-07
-4.21381e-07
-3.03835e-07
-3.63104e-07
-2.80883e-07
-3.09158e-07
-2.57268e-07
-2.59636e-07
-2.3315e-07
-2.14604e-07
-2.08702e-07
-1.7409e-07
-1.8411e-07
-1.38089e-07
-1.59575e-07
-1.06558e-07
-1.35317e-07
-7.94129e-08
-1.11574e-07
-5.65279e-08
-8.86025e-08
-3.77323e-08
-6.66856e-08
-2.28086e-08
-4.61311e-08
-1.14905e-08
-2.72761e-08
-3.45974e-09
-1.04905e-08
1.65578e-09
3.81983e-09
4.28574e-09
1.52091e-08
4.92201e-09
2.31874e-08
4.12511e-09
2.72159e-08
2.53389e-09
2.67022e-08
8.78117e-10
2.0992e-08
9.31033e-09
-1.45407e-09
-1.22012e-09
-6.23572e-09
4.74036e-09
-1.47182e-08
1.7242e-08
-2.72153e-08
3.48089e-08
-4.39786e-08
5.62461e-08
-6.51966e-08
8.05353e-08
-9.0997e-08
1.06814e-07
-1.21451e-07
1.34361e-07
-1.56577e-07
1.62577e-07
-1.96348e-07
1.90966e-07
-2.40692e-07
2.19124e-07
-2.89505e-07
2.46722e-07
-3.42649e-07
2.735e-07
-3.99959e-07
2.99252e-07
-4.61252e-07
3.23819e-07
-5.26324e-07
3.47084e-07
-5.94959e-07
3.6896e-07
-6.66931e-07
3.89389e-07
-7.42007e-07
4.08336e-07
-8.19948e-07
4.25783e-07
-9.00514e-07
4.41727e-07