/*--------------------------------*- C++ -*----------------------------------*\
  =========                 |
  \\      /  F ield         | OpenFOAM: The Open Source CFD Toolbox
   \\    /   O peration     | Website:  https://openfoam.org
    \\  /    A nd           | Version:  9
     \\/     M anipulation  |
\*---------------------------------------------------------------------------*/
FoamFile
{
    format      ascii;
    class       volVectorField;
    location    "0.2";
    object      U;
}
// * * * * * * * * * * * * * * * * * * * * * * * * * * * * * * * * * * * * * //

dimensions      [0 1 -1 0 0 0 0];

internalField   nonuniform List<vector> 
16384
(
(1.32962e-05 -1.32537e-05 0)
(8.11642e-05 -4.44521e-05 0)
(0.000205263 -5.74694e-05 0)
(0.000337891 -5.56635e-05 0)
(0.000447542 -4.52415e-05 0)
(0.000517315 -3.01371e-05 0)
(0.000537438 -1.26622e-05 0)
(0.000502503 5.78441e-06 0)
(0.000410124 2.43655e-05 0)
(0.00025989 4.25709e-05 0)
(5.27264e-05 6.01082e-05 0)
(-0.000209563 7.67842e-05 0)
(-0.000524607 9.24963e-05 0)
(-0.00088963 0.000107185 0)
(-0.00130165 0.000120824 0)
(-0.00175752 0.000133417 0)
(-0.00225409 0.00014498 0)
(-0.00278817 0.000155544 0)
(-0.00335665 0.000165142 0)
(-0.00395647 0.000173811 0)
(-0.00458467 0.000181597 0)
(-0.0052384 0.000188541 0)
(-0.00591494 0.000194689 0)
(-0.00661168 0.000200085 0)
(-0.00732611 0.000204771 0)
(-0.00805587 0.000208786 0)
(-0.0087987 0.000212169 0)
(-0.00955243 0.000214952 0)
(-0.010315 0.000217166 0)
(-0.0110845 0.00021884 0)
(-0.0118589 0.000219998 0)
(-0.0126366 0.000220664 0)
(-0.0134157 0.000220853 0)
(-0.0141945 0.000220582 0)
(-0.0149715 0.000219862 0)
(-0.0157449 0.000218707 0)
(-0.0165133 0.00021712 0)
(-0.017275 0.000215104 0)
(-0.0180285 0.000212664 0)
(-0.0187723 0.000209799 0)
(-0.0195048 0.000206512 0)
(-0.0202245 0.000202798 0)
(-0.0209299 0.000198657 0)
(-0.0216194 0.000194083 0)
(-0.0222915 0.00018907 0)
(-0.0229447 0.000183614 0)
(-0.0235773 0.000177711 0)
(-0.0241877 0.000171359 0)
(-0.0247745 0.000164556 0)
(-0.025336 0.000157296 0)
(-0.0258706 0.000149577 0)
(-0.0263768 0.000141401 0)
(-0.026853 0.000132771 0)
(-0.0272975 0.000123689 0)
(-0.027709 0.000114161 0)
(-0.0280859 0.000104193 0)
(-0.0284268 9.37985e-05 0)
(-0.0287302 8.29899e-05 0)
(-0.0289947 7.1783e-05 0)
(-0.0292191 6.01963e-05 0)
(-0.0294022 4.82494e-05 0)
(-0.0295427 3.59661e-05 0)
(-0.0296397 2.3375e-05 0)
(-0.0296922 1.05072e-05 0)
(-0.0296994 -2.60276e-06 0)
(-0.0296605 -1.59194e-05 0)
(-0.029575 -2.94048e-05 0)
(-0.0294425 -4.30172e-05 0)
(-0.0292625 -5.67107e-05 0)
(-0.0290351 -7.04368e-05 0)
(-0.0287603 -8.4146e-05 0)
(-0.0284381 -9.77868e-05 0)
(-0.0280692 -0.000111305 0)
(-0.0276539 -0.000124646 0)
(-0.0271931 -0.000137751 0)
(-0.0266877 -0.000150564 0)
(-0.0261389 -0.000163024 0)
(-0.0255479 -0.000175072 0)
(-0.0249165 -0.00018665 0)
(-0.0242463 -0.0001977 0)
(-0.0235392 -0.000208164 0)
(-0.0227973 -0.000217985 0)
(-0.022023 -0.000227106 0)
(-0.0212188 -0.000235476 0)
(-0.0203873 -0.000243045 0)
(-0.0195314 -0.000249764 0)
(-0.0186539 -0.00025559 0)
(-0.0177581 -0.00026048 0)
(-0.0168471 -0.000264401 0)
(-0.0159243 -0.00026732 0)
(-0.0149932 -0.000269211 0)
(-0.0140572 -0.000270052 0)
(-0.01312 -0.000269824 0)
(-0.0121852 -0.000268517 0)
(-0.0112565 -0.000266124 0)
(-0.0103374 -0.000262644 0)
(-0.00943175 -0.000258084 0)
(-0.00854305 -0.000252458 0)
(-0.00767491 -0.000245782 0)
(-0.00683082 -0.000238079 0)
(-0.00601419 -0.000229378 0)
(-0.00522831 -0.000219715 0)
(-0.00447634 -0.00020913 0)
(-0.00376129 -0.000197668 0)
(-0.00308601 -0.000185382 0)
(-0.00245315 -0.000172328 0)
(-0.00186514 -0.000158568 0)
(-0.0013242 -0.00014417 0)
(-0.000832286 -0.000129207 0)
(-0.000391094 -0.000113759 0)
(-2.01541e-06 -9.79127e-05 0)
(0.000333881 -8.17621e-05 0)
(0.000615879 -6.54117e-05 0)
(0.000843653 -4.89767e-05 0)
(0.00101731 -3.25856e-05 0)
(0.00113746 -1.63868e-05 0)
(0.00120528 -5.55881e-07 0)
(0.00122259 1.46936e-05 0)
(0.00119202 2.90943e-05 0)
(0.00111718 4.23002e-05 0)
(0.00100286 5.38489e-05 0)
(0.000855455 6.3095e-05 0)
(0.000683409 6.91112e-05 0)
(0.000497957 7.05637e-05 0)
(0.000313854 6.55957e-05 0)
(0.000150506 5.16894e-05 0)
(3.48329e-05 2.64683e-05 0)
(-3.56114e-06 -3.52968e-06 0)
(4.45772e-05 -8.12562e-05 0)
(0.000197895 -0.000197623 0)
(0.000431897 -0.00023816 0)
(0.000661399 -0.000217954 0)
(0.000826765 -0.000157334 0)
(0.000891271 -7.13213e-05 0)
(0.000830305 2.97423e-05 0)
(0.00062842 0.000138764 0)
(0.000277255 0.00025093 0)
(-0.000226331 0.000362984 0)
(-0.000881797 0.000472715 0)
(-0.00168595 0.000578601 0)
(-0.0026337 0.000679655 0)
(-0.00371865 0.000775207 0)
(-0.00493352 0.000864863 0)
(-0.00627047 0.000948421 0)
(-0.00772133 0.00102579 0)
(-0.0092778 0.00109702 0)
(-0.0109315 0.00116219 0)
(-0.0126743 0.00122146 0)
(-0.0144981 0.00127501 0)
(-0.0163951 0.00132307 0)
(-0.0183575 0.00136584 0)
(-0.0203782 0.00140356 0)
(-0.0224501 0.00143645 0)
(-0.0245664 0.00146474 0)
(-0.0267206 0.00148864 0)
(-0.0289066 0.00150835 0)
(-0.0311183 0.00152405 0)
(-0.03335 0.00153591 0)
(-0.0355963 0.00154408 0)
(-0.0378518 0.0015487 0)
(-0.0401113 0.00154989 0)
(-0.0423699 0.00154773 0)
(-0.0446226 0.00154232 0)
(-0.0468648 0.00153372 0)
(-0.0490917 0.00152198 0)
(-0.0512987 0.00150713 0)
(-0.0534812 0.00148922 0)
(-0.0556348 0.00146823 0)
(-0.0577547 0.00144419 0)
(-0.0598367 0.00141709 0)
(-0.0618761 0.00138692 0)
(-0.0638685 0.00135367 0)
(-0.0658092 0.00131732 0)
(-0.0676939 0.00127786 0)
(-0.0695179 0.00123527 0)
(-0.0712766 0.00118955 0)
(-0.0729656 0.00114068 0)
(-0.0745803 0.00108867 0)
(-0.0761161 0.00103352 0)
(-0.0775686 0.000975251 0)
(-0.0789332 0.000913891 0)
(-0.0802057 0.00084948 0)
(-0.0813816 0.000782072 0)
(-0.0824567 0.000711734 0)
(-0.0834271 0.000638551 0)
(-0.0842886 0.000562627 0)
(-0.0850375 0.000484079 0)
(-0.0856703 0.000403046 0)
(-0.0861834 0.000319682 0)
(-0.0865739 0.00023416 0)
(-0.0868389 0.000146675 0)
(-0.0869757 5.74396e-05 0)
(-0.0869821 -3.33107e-05 0)
(-0.0868563 -0.000125323 0)
(-0.0865967 -0.000218329 0)
(-0.0862023 -0.000312042 0)
(-0.0856722 -0.000406157 0)
(-0.0850064 -0.000500352 0)
(-0.084205 -0.000594291 0)
(-0.0832688 -0.000687625 0)
(-0.0821989 -0.000779994 0)
(-0.0809971 -0.000871029 0)
(-0.0796658 -0.00096035 0)
(-0.0782076 -0.00104757 0)
(-0.076626 -0.00113231 0)
(-0.0749248 -0.00121417 0)
(-0.0731086 -0.00129276 0)
(-0.0711823 -0.00136771 0)
(-0.0691514 -0.00143863 0)
(-0.0670221 -0.00150515 0)
(-0.0648009 -0.00156692 0)
(-0.0624948 -0.00162358 0)
(-0.0601114 -0.00167482 0)
(-0.0576587 -0.00172033 0)
(-0.0551451 -0.00175981 0)
(-0.0525793 -0.00179301 0)
(-0.0499704 -0.0018197 0)
(-0.047328 -0.00183967 0)
(-0.0446616 -0.00185275 0)
(-0.0419812 -0.00185879 0)
(-0.0392969 -0.00185771 0)
(-0.0366188 -0.00184941 0)
(-0.0339571 -0.00183388 0)
(-0.0313223 -0.00181111 0)
(-0.0287245 -0.00178115 0)
(-0.0261738 -0.00174408 0)
(-0.0236802 -0.00170004 0)
(-0.0212536 -0.00164917 0)
(-0.0189034 -0.00159169 0)
(-0.0166388 -0.00152783 0)
(-0.0144686 -0.00145788 0)
(-0.0124013 -0.00138216 0)
(-0.0104447 -0.00130102 0)
(-0.00860618 -0.00121486 0)
(-0.00689245 -0.00112411 0)
(-0.0053096 -0.00102926 0)
(-0.00386297 -0.000930828 0)
(-0.00255713 -0.000829379 0)
(-0.00139575 -0.000725532 0)
(-0.000381571 -0.000619965 0)
(0.000483698 -0.000513425 0)
(0.00119951 -0.00040674 0)
(0.00176659 -0.00030084 0)
(0.0021871 -0.000196786 0)
(0.00246485 -9.58036e-05 0)
(0.00260553 6.56651e-07 0)
(0.00261702 9.08461e-05 0)
(0.00250984 0.000172617 0)
(0.00229765 0.000243276 0)
(0.00199791 0.000299374 0)
(0.00163275 0.00033645 0)
(0.00122987 0.000348791 0)
(0.000822884 0.000329426 0)
(0.000451425 0.000270509 0)
(0.000166249 0.000166553 0)
(2.62908e-05 3.47782e-05 0)
(5.77703e-05 -0.000205596 0)
(0.000239204 -0.000431967 0)
(0.000491406 -0.000489865 0)
(0.000707643 -0.000416831 0)
(0.000814941 -0.000250471 0)
(0.000765988 -2.10772e-05 0)
(0.000527139 0.000248426 0)
(7.58578e-05 0.000541148 0)
(-0.000601006 0.000844876 0)
(-0.00150942 0.00115081 0)
(-0.00264992 0.00145264 0)
(-0.00401893 0.00174589 0)
(-0.00560986 0.00202743 0)
(-0.00741394 0.0022951 0)
(-0.0094208 0.0025475 0)
(-0.0116191 0.00278375 0)
(-0.0139966 0.00300341 0)
(-0.016541 0.00320636 0)
(-0.0192397 0.00339269 0)
(-0.02208 0.00356268 0)
(-0.0250494 0.00371673 0)
(-0.0281358 0.0038553 0)
(-0.0313273 0.00397894 0)
(-0.0346122 0.00408821 0)
(-0.0379796 0.00418367 0)
(-0.0414185 0.0042659 0)
(-0.0449186 0.00433545 0)
(-0.0484699 0.00439284 0)
(-0.0520628 0.00443856 0)
(-0.0556879 0.00447305 0)
(-0.0593364 0.00449674 0)
(-0.0629995 0.00450998 0)
(-0.0666687 0.0045131 0)
(-0.070336 0.00450636 0)
(-0.0739933 0.00449001 0)
(-0.0776327 0.00446422 0)
(-0.0812466 0.00442915 0)
(-0.0848273 0.00438492 0)
(-0.0883673 0.0043316 0)
(-0.0918592 0.00426925 0)
(-0.0952955 0.00419789 0)
(-0.098669 0.00411752 0)
(-0.101972 0.00402816 0)
(-0.105198 0.00392977 0)
(-0.108338 0.00382233 0)
(-0.111386 0.00370582 0)
(-0.114334 0.00358023 0)
(-0.117175 0.00344553 0)
(-0.119901 0.00330173 0)
(-0.122506 0.00314886 0)
(-0.124982 0.00298696 0)
(-0.127321 0.0028161 0)
(-0.129517 0.00263638 0)
(-0.131562 0.00244794 0)
(-0.13345 0.00225096 0)
(-0.135174 0.00204566 0)
(-0.136727 0.00183228 0)
(-0.138104 0.00161116 0)
(-0.139298 0.00138263 0)
(-0.140304 0.00114712 0)
(-0.141116 0.000905079 0)
(-0.14173 0.000657027 0)
(-0.14214 0.000403527 0)
(-0.142344 0.000145202 0)
(-0.142338 -0.000117272 0)
(-0.142118 -0.000383168 0)
(-0.141683 -0.000651705 0)
(-0.141032 -0.000922059 0)
(-0.140162 -0.00119336 0)
(-0.139074 -0.00146468 0)
(-0.137769 -0.00173507 0)
(-0.136247 -0.00200353 0)
(-0.134511 -0.00226905 0)
(-0.132564 -0.00253057 0)
(-0.130409 -0.00278701 0)
(-0.128052 -0.0030373 0)
(-0.125497 -0.00328034 0)
(-0.122751 -0.00351502 0)
(-0.119821 -0.00374025 0)
(-0.116715 -0.00395495 0)
(-0.113442 -0.00415805 0)
(-0.110012 -0.00434852 0)
(-0.106436 -0.00452534 0)
(-0.102724 -0.00468756 0)
(-0.098888 -0.00483426 0)
(-0.0949417 -0.00496458 0)
(-0.090898 -0.00507771 0)
(-0.0867709 -0.00517295 0)
(-0.0825747 -0.00524962 0)
(-0.0783246 -0.00530717 0)
(-0.0740357 -0.00534511 0)
(-0.0697238 -0.00536306 0)
(-0.0654048 -0.00536073 0)
(-0.0610949 -0.00533793 0)
(-0.0568103 -0.00529457 0)
(-0.0525672 -0.00523068 0)
(-0.0483818 -0.00514639 0)
(-0.0442701 -0.00504195 0)
(-0.0402479 -0.00491772 0)
(-0.0363306 -0.00477416 0)
(-0.0325333 -0.00461188 0)
(-0.0288703 -0.00443155 0)
(-0.0253557 -0.004234 0)
(-0.0220026 -0.00402014 0)
(-0.0188234 -0.00379101 0)
(-0.0158297 -0.00354778 0)
(-0.0130319 -0.00329169 0)
(-0.0104396 -0.00302415 0)
(-0.00806096 -0.00274668 0)
(-0.0059031 -0.00246093 0)
(-0.00397158 -0.00216871 0)
(-0.00227049 -0.00187201 0)
(-0.000802212 -0.001573 0)
(0.000432698 -0.00127411 0)
(0.00143575 -0.000978034 0)
(0.00221072 -0.000687844 0)
(0.00276399 -0.000407052 0)
(0.00310482 -0.000139738 0)
(0.00324584 0.00010928 0)
(0.00320353 0.000334242 0)
(0.00299884 0.000528178 0)
(0.0026579 0.000682597 0)
(0.00221282 0.000787165 0)
(0.00170243 0.000829581 0)
(0.00117195 0.000796034 0)
(0.00067233 0.000672776 0)
(0.000269786 0.000451471 0)
(5.13089e-05 0.000150012 0)
(5.63482e-05 -0.000339238 0)
(0.00022031 -0.000662754 0)
(0.000420589 -0.000706649 0)
(0.000542275 -0.000538298 0)
(0.00050634 -0.000214777 0)
(0.000260251 0.000217144 0)
(-0.000234533 0.000720648 0)
(-0.00100455 0.00126758 0)
(-0.00206604 0.00183672 0)
(-0.00342701 0.00241219 0)
(-0.00508889 0.00298227 0)
(-0.00704804 0.00353836 0)
(-0.00929698 0.00407423 0)
(-0.0118252 0.00458549 0)
(-0.0146202 0.00506913 0)
(-0.0176677 0.00552319 0)
(-0.0209527 0.00594654 0)
(-0.0244592 0.00633868 0)
(-0.0281711 0.00669956 0)
(-0.032072 0.00702949 0)
(-0.0361459 0.00732907 0)
(-0.0403766 0.00759905 0)
(-0.0447485 0.00784031 0)
(-0.0492463 0.00805382 0)
(-0.0538551 0.00824058 0)
(-0.0585605 0.00840159 0)
(-0.0633484 0.00853785 0)
(-0.0682054 0.00865028 0)
(-0.0731185 0.0087398 0)
(-0.078075 0.00880722 0)
(-0.0830626 0.00885331 0)
(-0.0880696 0.00887874 0)
(-0.0930842 0.00888411 0)
(-0.0980953 0.00886994 0)
(-0.103092 0.00883667 0)
(-0.108063 0.00878467 0)
(-0.112998 0.00871423 0)
(-0.117887 0.00862557 0)
(-0.122719 0.00851887 0)
(-0.127483 0.00839424 0)
(-0.132171 0.00825175 0)
(-0.136771 0.00809145 0)
(-0.141273 0.00791334 0)
(-0.145667 0.0077174 0)
(-0.149944 0.00750363 0)
(-0.154093 0.00727201 0)
(-0.158104 0.00702252 0)
(-0.161967 0.00675518 0)
(-0.165672 0.00647003 0)
(-0.16921 0.00616714 0)
(-0.172569 0.00584663 0)
(-0.175741 0.00550867 0)
(-0.178717 0.0051535 0)
(-0.181485 0.0047814 0)
(-0.184039 0.00439275 0)
(-0.186367 0.00398802 0)
(-0.188463 0.00356772 0)
(-0.190317 0.0031325 0)
(-0.191921 0.00268306 0)
(-0.193269 0.00222023 0)
(-0.194353 0.00174493 0)
(-0.195167 0.00125818 0)
(-0.195705 0.000761087 0)
(-0.195962 0.000254885 0)
(-0.195934 -0.000259106 0)
(-0.195616 -0.000779463 0)
(-0.195006 -0.00130467 0)
(-0.194103 -0.00183311 0)
(-0.192904 -0.00236309 0)
(-0.191411 -0.00289283 0)
(-0.189623 -0.00342048 0)
(-0.187544 -0.00394412 0)
(-0.185175 -0.00446176 0)
(-0.182521 -0.00497138 0)
(-0.179587 -0.00547092 0)
(-0.176379 -0.00595828 0)
(-0.172906 -0.00643136 0)
(-0.169175 -0.00688804 0)
(-0.165197 -0.00732622 0)
(-0.160982 -0.00774382 0)
(-0.156542 -0.0081388 0)
(-0.15189 -0.00850918 0)
(-0.147041 -0.00885302 0)
(-0.142009 -0.00916849 0)
(-0.136812 -0.00945383 0)
(-0.131465 -0.0097074 0)
(-0.125986 -0.00992768 0)
(-0.120395 -0.0101133 0)
(-0.11471 -0.010263 0)
(-0.108952 -0.0103757 0)
(-0.103141 -0.0104504 0)
(-0.0972983 -0.0104866 0)
(-0.0914446 -0.0104835 0)
(-0.0856016 -0.0104409 0)
(-0.0797911 -0.0103586 0)
(-0.0740345 -0.0102366 0)
(-0.0683535 -0.0100753 0)
(-0.0627694 -0.00987516 0)
(-0.0573032 -0.0096368 0)
(-0.0519754 -0.00936119 0)
(-0.0468061 -0.00904947 0)
(-0.0418143 -0.008703 0)
(-0.0370187 -0.00832337 0)
(-0.0324367 -0.00791238 0)
(-0.0280848 -0.00747206 0)
(-0.0239782 -0.00700467 0)
(-0.0201308 -0.00651269 0)
(-0.0165552 -0.00599885 0)
(-0.0132622 -0.00546614 0)
(-0.010261 -0.0049178 0)
(-0.00755878 -0.0043574 0)
(-0.00516078 -0.00378881 0)
(-0.00306992 -0.0032163 0)
(-0.00128666 -0.00264461 0)
(0.000191263 -0.00207898 0)
(0.00136913 -0.00152534 0)
(0.00225555 -0.000990388 0)
(0.0028629 -0.00048184 0)
(0.0032077 -8.63016e-06 0)
(0.00331124 0.000418778 0)
(0.00320009 0.000788057 0)
(0.00290674 0.00108466 0)
(0.00247031 0.00129154 0)
(0.00193706 0.00138919 0)
(0.00135984 0.00135648 0)
(0.000797533 0.0011727 0)
(0.000329033 0.000822949 0)
(6.51002e-05 0.000312699 0)
(4.63576e-05 -0.000450656 0)
(0.00016084 -0.000830384 0)
(0.000255552 -0.000815076 0)
(0.000219391 -0.000502574 0)
(-2.64635e-05 2.97969e-05 0)
(-0.000536485 0.000718697 0)
(-0.00135088 0.00151339 0)
(-0.00249784 0.0023741 0)
(-0.00399503 0.00327003 0)
(-0.00585138 0.00417757 0)
(-0.00806876 0.00507879 0)
(-0.0106434 0.00596023 0)
(-0.0135669 0.00681193 0)
(-0.0168277 0.00762664 0)
(-0.0204113 0.00839926 0)
(-0.0243014 0.00912635 0)
(-0.0284803 0.00980578 0)
(-0.0329295 0.0104364 0)
(-0.0376297 0.0110179 0)
(-0.0425615 0.0115505 0)
(-0.0477055 0.0120348 0)
(-0.0530425 0.0124719 0)
(-0.0585532 0.0128631 0)
(-0.0642192 0.0132096 0)
(-0.0700222 0.0135129 0)
(-0.0759444 0.0137746 0)
(-0.0819686 0.0139961 0)
(-0.0880781 0.0141788 0)
(-0.0942566 0.0143242 0)
(-0.100488 0.0144333 0)
(-0.106758 0.0145075 0)
(-0.113051 0.0145478 0)
(-0.119352 0.0145551 0)
(-0.125648 0.0145302 0)
(-0.131924 0.0144739 0)
(-0.138166 0.0143866 0)
(-0.144363 0.014269 0)
(-0.150499 0.0141213 0)
(-0.156562 0.0139438 0)
(-0.162539 0.0137368 0)
(-0.168418 0.0135004 0)
(-0.174184 0.0132347 0)
(-0.179827 0.0129397 0)
(-0.185332 0.0126154 0)
(-0.190687 0.0122619 0)
(-0.19588 0.0118792 0)
(-0.200898 0.0114673 0)
(-0.205728 0.0110263 0)
(-0.210359 0.0105562 0)
(-0.214777 0.0100573 0)
(-0.21897 0.00952968 0)
(-0.222927 0.00897381 0)
(-0.226635 0.00839005 0)
(-0.230083 0.00777894 0)
(-0.23326 0.00714112 0)
(-0.236154 0.00647736 0)
(-0.238755 0.00578858 0)
(-0.241053 0.00507582 0)
(-0.243038 0.00434031 0)
(-0.244701 0.00358338 0)
(-0.246034 0.00280656 0)
(-0.247029 0.00201153 0)
(-0.247679 0.00120011 0)
(-0.247978 0.000374321 0)
(-0.24792 -0.000463688 0)
(-0.247502 -0.0013116 0)
(-0.24672 -0.00216696 0)
(-0.245572 -0.00302714 0)
(-0.244056 -0.0038894 0)
(-0.242174 -0.00475086 0)
(-0.239926 -0.00560854 0)
(-0.237314 -0.00645933 0)
(-0.234344 -0.00730006 0)
(-0.23102 -0.00812746 0)
(-0.227348 -0.00893822 0)
(-0.223337 -0.00972897 0)
(-0.218996 -0.0104963 0)
(-0.214336 -0.0112369 0)
(-0.209369 -0.0119474 0)
(-0.204109 -0.0126244 0)
(-0.198569 -0.0132647 0)
(-0.192768 -0.0138651 0)
(-0.186722 -0.0144225 0)
(-0.180449 -0.014934 0)
(-0.17397 -0.0153967 0)
(-0.167306 -0.0158082 0)
(-0.160479 -0.0161659 0)
(-0.153511 -0.0164676 0)
(-0.146427 -0.0167114 0)
(-0.13925 -0.0168955 0)
(-0.132007 -0.0170186 0)
(-0.124722 -0.0170793 0)
(-0.117422 -0.017077 0)
(-0.110134 -0.0170109 0)
(-0.102883 -0.016881 0)
(-0.0956964 -0.0166873 0)
(-0.0886008 -0.0164302 0)
(-0.081622 -0.0161106 0)
(-0.0747858 -0.0157296 0)
(-0.0681173 -0.0152887 0)
(-0.0616411 -0.0147898 0)
(-0.0553806 -0.014235 0)
(-0.0493585 -0.013627 0)
(-0.0435962 -0.0129686 0)
(-0.0381137 -0.0122632 0)
(-0.0329297 -0.0115145 0)
(-0.0280612 -0.0107265 0)
(-0.0235233 -0.00990359 0)
(-0.0193292 -0.00905069 0)
(-0.0154901 -0.00817307 0)
(-0.0120146 -0.00727652 0)
(-0.00890886 -0.00636733 0)
(-0.00617637 -0.00545244 0)
(-0.0038175 -0.00453947 0)
(-0.00182935 -0.00363687 0)
(-0.000205409 -0.00275405 0)
(0.00106479 -0.00190162 0)
(0.00199606 -0.00109162 0)
(0.00260803 -0.000337792 0)
(0.00292562 0.000344063 0)
(0.00297954 0.000935696 0)
(0.00280684 0.00141608 0)
(0.00245147 0.00176116 0)
(0.00196483 0.00194402 0)
(0.00140513 0.00193563 0)
(0.000837447 0.00170677 0)
(0.000350322 0.00123192 0)
(7.02085e-05 0.00049652 0)
(3.15889e-05 -0.00052281 0)
(7.51443e-05 -0.000897197 0)
(2.47533e-05 -0.000766143 0)
(-0.000217481 -0.000254469 0)
(-0.000725409 0.000541122 0)
(-0.00155243 0.00154136 0)
(-0.00273817 0.002682 0)
(-0.00431047 0.00391182 0)
(-0.00628685 0.0051904 0)
(-0.00867619 0.00648613 0)
(-0.0114801 0.00777451 0)
(-0.0146942 0.00903681 0)
(-0.0183094 0.0102589 0)
(-0.0223128 0.0114302 0)
(-0.0266884 0.0125431 0)
(-0.0314181 0.0135925 0)
(-0.036482 0.0145749 0)
(-0.0418594 0.0154883 0)
(-0.0475283 0.0163319 0)
(-0.0534668 0.0171057 0)
(-0.0596527 0.0178103 0)
(-0.0660636 0.018447 0)
(-0.0726777 0.0190174 0)
(-0.0794732 0.019523 0)
(-0.0864291 0.019966 0)
(-0.0935245 0.0203483 0)
(-0.100739 0.0206718 0)
(-0.108054 0.0209385 0)
(-0.115449 0.0211503 0)
(-0.122905 0.021309 0)
(-0.130405 0.021416 0)
(-0.137931 0.021473 0)
(-0.145466 0.0214812 0)
(-0.152992 0.0214417 0)
(-0.160493 0.0213557 0)
(-0.167952 0.0212238 0)
(-0.175354 0.0210468 0)
(-0.182683 0.0208253 0)
(-0.189922 0.0205596 0)
(-0.197057 0.0202502 0)
(-0.204071 0.0198972 0)
(-0.21095 0.0195008 0)
(-0.217678 0.0190611 0)
(-0.224241 0.0185782 0)
(-0.230622 0.0180522 0)
(-0.236807 0.017483 0)
(-0.242781 0.0168709 0)
(-0.248529 0.016216 0)
(-0.254036 0.0155185 0)
(-0.259288 0.0147786 0)
(-0.26427 0.0139969 0)
(-0.268967 0.0131738 0)
(-0.273367 0.01231 0)
(-0.277455 0.0114063 0)
(-0.281218 0.0104637 0)
(-0.284643 0.00948348 0)
(-0.287718 0.00846695 0)
(-0.290431 0.00741572 0)
(-0.292771 0.00633158 0)
(-0.294726 0.00521657 0)
(-0.296289 0.00407293 0)
(-0.297449 0.00290316 0)
(-0.298199 0.00170995 0)
(-0.298531 0.000496264 0)
(-0.29844 -0.000734737 0)
(-0.297921 -0.00197966 0)
(-0.29697 -0.00323489 0)
(-0.295585 -0.00449662 0)
(-0.293766 -0.00576084 0)
(-0.291511 -0.00702337 0)
(-0.288824 -0.00827985 0)
(-0.285707 -0.00952579 0)
(-0.282165 -0.0107566 0)
(-0.278205 -0.0119674 0)
(-0.273834 -0.0131536 0)
(-0.269063 -0.0143102 0)
(-0.263902 -0.0154324 0)
(-0.258364 -0.0165153 0)
(-0.252463 -0.0175539 0)
(-0.246216 -0.0185435 0)
(-0.239641 -0.0194795 0)
(-0.232755 -0.0203571 0)
(-0.22558 -0.021172 0)
(-0.218137 -0.02192 0)
(-0.210451 -0.022597 0)
(-0.202545 -0.0231993 0)
(-0.194445 -0.0237233 0)
(-0.186179 -0.0241659 0)
(-0.177774 -0.0245243 0)
(-0.169258 -0.024796 0)
(-0.160662 -0.0249789 0)
(-0.152015 -0.0250713 0)
(-0.143347 -0.0250721 0)
(-0.134691 -0.0249804 0)
(-0.126075 -0.024796 0)
(-0.117532 -0.024519 0)
(-0.109093 -0.0241501 0)
(-0.100787 -0.0236905 0)
(-0.0926448 -0.0231418 0)
(-0.084696 -0.0225062 0)
(-0.076969 -0.0217865 0)
(-0.0694912 -0.0209858 0)
(-0.062289 -0.0201081 0)
(-0.0553873 -0.0191574 0)
(-0.0488095 -0.0181388 0)
(-0.0425773 -0.0170574 0)
(-0.0367105 -0.0159193 0)
(-0.0312267 -0.014731 0)
(-0.0261413 -0.0134995 0)
(-0.0214669 -0.0122326 0)
(-0.0172138 -0.0109387 0)
(-0.0133891 -0.00962708 0)
(-0.00999664 -0.00830771 0)
(-0.00703689 -0.00699165 0)
(-0.00450652 -0.00569106 0)
(-0.00239813 -0.00441942 0)
(-0.000699845 -0.00319175 0)
(0.000604989 -0.00202493 0)
(0.00153827 -0.000937976 0)
(0.00212755 4.75428e-05 0)
(0.00240649 0.000907145 0)
(0.00241529 0.00161308 0)
(0.00220124 0.00213412 0)
(0.00181924 0.0024356 0)
(0.0013314 0.00247997 0)
(0.000807497 0.0022281 0)
(0.00034219 0.0016414 0)
(6.92886e-05 0.000683093 0)
(1.42272e-05 -0.000545324 0)
(-2.71683e-05 -0.000836783 0)
(-0.000250636 -0.000523112 0)
(-0.000734906 0.000248781 0)
(-0.00154485 0.00136496 0)
(-0.00273064 0.0027315 0)
(-0.00432928 0.00427147 0)
(-0.0063666 0.00592279 0)
(-0.00885871 0.00763571 0)
(-0.0118134 0.0093707 0)
(-0.0152312 0.0110966 0)
(-0.0191068 0.0127893 0)
(-0.0234301 0.0144302 0)
(-0.0281867 0.0160052 0)
(-0.0333593 0.0175041 0)
(-0.0389281 0.0189195 0)
(-0.0448713 0.0202465 0)
(-0.0511661 0.021482 0)
(-0.0577885 0.0226247 0)
(-0.0647141 0.023674 0)
(-0.0719181 0.0246307 0)
(-0.0793758 0.0254961 0)
(-0.0870628 0.0262718 0)
(-0.0949545 0.0269601 0)
(-0.103027 0.0275633 0)
(-0.111257 0.0280838 0)
(-0.119622 0.0285242 0)
(-0.128099 0.028887 0)
(-0.136666 0.0291745 0)
(-0.145302 0.029389 0)
(-0.153986 0.0295326 0)
(-0.162698 0.0296072 0)
(-0.171417 0.0296145 0)
(-0.180125 0.0295561 0)
(-0.188801 0.0294332 0)
(-0.197427 0.0292469 0)
(-0.205984 0.0289983 0)
(-0.214455 0.0286881 0)
(-0.22282 0.0283168 0)
(-0.231062 0.027885 0)
(-0.239162 0.0273929 0)
(-0.247104 0.026841 0)
(-0.254869 0.0262293 0)
(-0.26244 0.025558 0)
(-0.269799 0.0248273 0)
(-0.276929 0.0240373 0)
(-0.283813 0.0231883 0)
(-0.290434 0.0222805 0)
(-0.296774 0.0213143 0)
(-0.302818 0.0202901 0)
(-0.308548 0.0192086 0)
(-0.313948 0.0180706 0)
(-0.319002 0.0168772 0)
(-0.323696 0.0156294 0)
(-0.328013 0.0143288 0)
(-0.331939 0.012977 0)
(-0.33546 0.011576 0)
(-0.338563 0.010128 0)
(-0.341235 0.00863556 0)
(-0.343465 0.00710147 0)
(-0.345241 0.00552887 0)
(-0.346553 0.00392117 0)
(-0.347393 0.00228212 0)
(-0.347754 0.000615763 0)
(-0.347627 -0.00107355 0)
(-0.347009 -0.00278119 0)
(-0.345895 -0.0045022 0)
(-0.344283 -0.0062314 0)
(-0.342172 -0.00796333 0)
(-0.339563 -0.00969228 0)
(-0.336458 -0.0114124 0)
(-0.33286 -0.0131174 0)
(-0.328776 -0.0148013 0)
(-0.324213 -0.0164574 0)
(-0.31918 -0.0180794 0)
(-0.313689 -0.0196607 0)
(-0.307752 -0.0211945 0)
(-0.301384 -0.0226745 0)
(-0.294601 -0.0240939 0)
(-0.287421 -0.0254463 0)
(-0.279865 -0.0267253 0)
(-0.271955 -0.0279248 0)
(-0.263713 -0.0290388 0)
(-0.255165 -0.0300616 0)
(-0.246337 -0.0309878 0)
(-0.237257 -0.0318123 0)
(-0.227954 -0.0325304 0)
(-0.218459 -0.0331379 0)
(-0.208804 -0.0336309 0)
(-0.19902 -0.0340061 0)
(-0.189141 -0.0342607 0)
(-0.179201 -0.0343926 0)
(-0.169235 -0.0344 0)
(-0.159278 -0.034282 0)
(-0.149363 -0.0340381 0)
(-0.139528 -0.0336686 0)
(-0.129805 -0.0331744 0)
(-0.120231 -0.0325572 0)
(-0.110839 -0.0318192 0)
(-0.101661 -0.0309634 0)
(-0.0927313 -0.0299935 0)
(-0.0840797 -0.028914 0)
(-0.0757363 -0.0277299 0)
(-0.0677293 -0.0264471 0)
(-0.0600852 -0.0250723 0)
(-0.0528284 -0.0236127 0)
(-0.0459814 -0.0220763 0)
(-0.0395639 -0.0204722 0)
(-0.0335933 -0.0188099 0)
(-0.0280842 -0.0170999 0)
(-0.0230479 -0.0153538 0)
(-0.0184924 -0.0135841 0)
(-0.0144224 -0.0118043 0)
(-0.0108384 -0.0100293 0)
(-0.00773686 -0.00827539 0)
(-0.00510991 -0.00656055 0)
(-0.00294473 -0.00490461 0)
(-0.00122338 -0.00332966 0)
(7.75716e-05 -0.00186031 0)
(0.000987478 -0.000524155 0)
(0.00154196 0.0006479 0)
(0.00178332 0.00162124 0)
(0.00176103 0.0023573 0)
(0.0015323 0.00281343 0)
(0.00116187 0.00294311 0)
(0.000722683 0.0026965 0)
(0.000312098 0.00202113 0)
(6.42925e-05 0.000858993 0)
(-4.44153e-06 -0.000511837 0)
(-0.000139609 -0.000630985 0)
(-0.000555494 -5.91644e-05 0)
(-0.00130779 0.00103965 0)
(-0.00244985 0.00253694 0)
(-0.00402667 0.00432583 0)
(-0.00607107 0.00631801 0)
(-0.00860548 0.00844133 0)
(-0.0116434 0.0106373 0)
(-0.0151906 0.0128587 0)
(-0.0192459 0.0150681 0)
(-0.0238026 0.0172359 0)
(-0.0288489 0.0193389 0)
(-0.0343691 0.0213596 0)
(-0.0403444 0.0232847 0)
(-0.0467532 0.0251048 0)
(-0.0535722 0.0268131 0)
(-0.0607765 0.0284056 0)
(-0.0683402 0.02988 0)
(-0.0762367 0.0312354 0)
(-0.0844393 0.0324722 0)
(-0.0929208 0.0335918 0)
(-0.101654 0.0345961 0)
(-0.110613 0.0354876 0)
(-0.119771 0.0362691 0)
(-0.129103 0.0369434 0)
(-0.138582 0.0375136 0)
(-0.148183 0.0379827 0)
(-0.157884 0.0383536 0)
(-0.167658 0.0386291 0)
(-0.177484 0.0388118 0)
(-0.187339 0.038904 0)
(-0.197199 0.0389078 0)
(-0.207043 0.0388253 0)
(-0.216849 0.038658 0)
(-0.226596 0.0384074 0)
(-0.236264 0.0380746 0)
(-0.24583 0.0376607 0)
(-0.255275 0.0371665 0)
(-0.264578 0.0365925 0)
(-0.273719 0.0359394 0)
(-0.282678 0.0352074 0)
(-0.291435 0.034397 0)
(-0.29997 0.0335083 0)
(-0.308264 0.0325417 0)
(-0.316297 0.0314974 0)
(-0.32405 0.0303758 0)
(-0.331504 0.0291773 0)
(-0.338639 0.0279025 0)
(-0.345436 0.0265521 0)
(-0.351879 0.0251271 0)
(-0.357947 0.0236285 0)
(-0.363624 0.0220578 0)
(-0.368892 0.0204166 0)
(-0.373735 0.0187068 0)
(-0.378136 0.0169308 0)
(-0.38208 0.0150912 0)
(-0.385553 0.013191 0)
(-0.388539 0.0112334 0)
(-0.391027 0.00922225 0)
(-0.393004 0.00716166 0)
(-0.39446 0.00505612 0)
(-0.395385 0.00291053 0)
(-0.39577 0.0007302 0)
(-0.395608 -0.0014792 0)
(-0.394894 -0.00371162 0)
(-0.393624 -0.00596064 0)
(-0.391796 -0.00821949 0)
(-0.389408 -0.0104811 0)
(-0.386461 -0.0127381 0)
(-0.382959 -0.0149827 0)
(-0.378906 -0.0172072 0)
(-0.374308 -0.0194034 0)
(-0.369173 -0.021563 0)
(-0.363514 -0.0236776 0)
(-0.35734 -0.0257388 0)
(-0.350668 -0.0277379 0)
(-0.343514 -0.0296666 0)
(-0.335895 -0.0315164 0)
(-0.327833 -0.0332788 0)
(-0.319349 -0.0349458 0)
(-0.310468 -0.0365095 0)
(-0.301216 -0.037962 0)
(-0.29162 -0.0392961 0)
(-0.28171 -0.0405049 0)
(-0.271517 -0.0415818 0)
(-0.261073 -0.0425208 0)
(-0.250411 -0.0433165 0)
(-0.239568 -0.0439638 0)
(-0.228578 -0.0444587 0)
(-0.217479 -0.0447974 0)
(-0.206308 -0.0449772 0)
(-0.195104 -0.044996 0)
(-0.183904 -0.0448524 0)
(-0.172749 -0.0445459 0)
(-0.161675 -0.044077 0)
(-0.150723 -0.0434467 0)
(-0.139931 -0.0426573 0)
(-0.129335 -0.0417117 0)
(-0.118973 -0.0406137 0)
(-0.10888 -0.0393682 0)
(-0.0990908 -0.0379809 0)
(-0.0896384 -0.0364585 0)
(-0.080554 -0.0348086 0)
(-0.0718667 -0.0330397 0)
(-0.0636039 -0.0311613 0)
(-0.0557901 -0.0291839 0)
(-0.0484475 -0.0271191 0)
(-0.0415954 -0.0249792 0)
(-0.0352497 -0.0227781 0)
(-0.0294233 -0.0205305 0)
(-0.0241252 -0.0182526 0)
(-0.0193606 -0.0159618 0)
(-0.0151306 -0.0136772 0)
(-0.0114318 -0.0114195 0)
(-0.00825592 -0.00921151 0)
(-0.00558975 -0.00707822 0)
(-0.00341462 -0.00504715 0)
(-0.00170616 -0.00314874 0)
(-0.000433933 -0.00141675 0)
(0.000438854 0.000111376 0)
(0.000955743 0.00139408 0)
(0.00116748 0.00238539 0)
(0.00113257 0.00303455 0)
(0.00091721 0.00328589 0)
(0.000596009 0.00307878 0)
(0.000266049 0.00234725 0)
(5.66108e-05 0.00101453 0)
(-2.36758e-05 -0.000418669 0)
(-0.000257989 -0.000267977 0)
(-0.000879057 0.000644392 0)
(-0.00191767 0.00214178 0)
(-0.00341387 0.00408386 0)
(-0.00540612 0.00635282 0)
(-0.00792174 0.00885031 0)
(-0.0109786 0.0114952 0)
(-0.0145867 0.0142209 0)
(-0.0187488 0.0169733 0)
(-0.0234615 0.0197088 0)
(-0.0287159 0.0223925 0)
(-0.0344985 0.0249969 0)
(-0.0407918 0.0275009 0)
(-0.0475753 0.0298884 0)
(-0.0548259 0.0321475 0)
(-0.0625183 0.0342699 0)
(-0.070626 0.0362502 0)
(-0.0791212 0.0380851 0)
(-0.0879755 0.0397733 0)
(-0.09716 0.041315 0)
(-0.106646 0.0427114 0)
(-0.116403 0.0439646 0)
(-0.126404 0.0450773 0)
(-0.13662 0.0460527 0)
(-0.147022 0.0468941 0)
(-0.157583 0.0476051 0)
(-0.168276 0.0481891 0)
(-0.179074 0.0486496 0)
(-0.189951 0.0489899 0)
(-0.200881 0.049213 0)
(-0.21184 0.0493219 0)
(-0.222801 0.0493189 0)
(-0.233742 0.0492066 0)
(-0.244637 0.0489868 0)
(-0.255464 0.0486614 0)
(-0.2662 0.0482318 0)
(-0.27682 0.0476993 0)
(-0.287303 0.0470648 0)
(-0.297626 0.0463292 0)
(-0.307766 0.0454932 0)
(-0.317702 0.0445572 0)
(-0.327411 0.0435219 0)
(-0.336871 0.0423875 0)
(-0.346061 0.0411546 0)
(-0.354959 0.0398235 0)
(-0.363544 0.0383948 0)
(-0.371794 0.0368691 0)
(-0.379689 0.0352472 0)
(-0.387209 0.0335303 0)
(-0.394332 0.0317194 0)
(-0.401039 0.0298163 0)
(-0.40731 0.0278226 0)
(-0.413127 0.0257406 0)
(-0.418472 0.0235728 0)
(-0.423326 0.0213223 0)
(-0.427674 0.0189924 0)
(-0.431498 0.0165868 0)
(-0.434784 0.01411 0)
(-0.437518 0.0115666 0)
(-0.439688 0.00896191 0)
(-0.44128 0.00630158 0)
(-0.442285 0.00359184 0)
(-0.442695 0.000839375 0)
(-0.442501 -0.00194867 0)
(-0.441697 -0.00476468 0)
(-0.44028 -0.0076006 0)
(-0.438246 -0.010448 0)
(-0.435596 -0.0132979 0)
(-0.432331 -0.0161411 0)
(-0.428453 -0.018968 0)
(-0.423968 -0.0217689 0)
(-0.418883 -0.0245334 0)
(-0.413208 -0.0272515 0)
(-0.406954 -0.0299125 0)
(-0.400135 -0.0325059 0)
(-0.392767 -0.0350212 0)
(-0.384867 -0.0374476 0)
(-0.376457 -0.0397748 0)
(-0.367557 -0.0419923 0)
(-0.358194 -0.0440901 0)
(-0.348392 -0.0460581 0)
(-0.33818 -0.047887 0)
(-0.327589 -0.0495676 0)
(-0.316651 -0.0510912 0)
(-0.305398 -0.0524499 0)
(-0.293868 -0.053636 0)
(-0.282095 -0.0546428 0)
(-0.270119 -0.0554643 0)
(-0.257979 -0.0560952 0)
(-0.245714 -0.0565309 0)
(-0.233365 -0.0567681 0)
(-0.220975 -0.0568041 0)
(-0.208585 -0.0566373 0)
(-0.196237 -0.0562671 0)
(-0.183974 -0.0556939 0)
(-0.171837 -0.0549193 0)
(-0.159868 -0.0539459 0)
(-0.148109 -0.0527773 0)
(-0.136598 -0.0514186 0)
(-0.125376 -0.0498756 0)
(-0.114479 -0.0481556 0)
(-0.103944 -0.0462669 0)
(-0.0938043 -0.044219 0)
(-0.0840921 -0.0420225 0)
(-0.074837 -0.0396894 0)
(-0.0660662 -0.0372328 0)
(-0.0578037 -0.034667 0)