/*--------------------------------*- C++ -*----------------------------------*\
  =========                 |
  \\      /  F ield         | OpenFOAM: The Open Source CFD Toolbox
   \\    /   O peration     | Website:  https://openfoam.org
    \\  /    A nd           | Version:  9
     \\/     M anipulation  |
\*---------------------------------------------------------------------------*/
FoamFile
{
    format      ascii;
    class       volScalarField;
    location    "0.4";
    object      p;
}
// * * * * * * * * * * * * * * * * * * * * * * * * * * * * * * * * * * * * * //

dimensions      [0 2 -2 0 0 0 0];

internalField   nonuniform List<scalar> 
16384
(
0.000181488
0.0015011
0.000624469
-0.00293778
-0.00896648
-0.0171541
-0.0271476
-0.0385875
-0.0511362
-0.0644892
-0.078376
-0.09256
-0.106835
-0.121021
-0.134966
-0.148536
-0.161618
-0.174117
-0.185952
-0.197054
-0.207366
-0.216842
-0.225441
-0.233134
-0.239893
-0.245699
-0.250535
-0.254387
-0.257245
-0.259103
-0.259953
-0.259791
-0.258615
-0.256421
-0.253208
-0.248975
-0.243723
-0.237451
-0.230161
-0.221854
-0.212534
-0.202204
-0.190869
-0.178534
-0.165208
-0.150899
-0.135618
-0.11938
-0.102198
-0.0840929
-0.0650838
-0.0451951
-0.0244538
-0.00289038
0.0194614
0.042564
0.0663762
0.0908531
0.115946
0.141601
0.167763
0.194369
0.221357
0.248657
0.276198
0.303904
0.331697
0.359495
0.387214
0.414768
0.442068
0.469024
0.495545
0.521538
0.546913
0.571576
0.595437
0.618407
0.640397
0.661324
0.681104
0.69966
0.716919
0.732811
0.747273
0.760249
0.771687
0.781544
0.789784
0.796378
0.801308
0.804561
0.806135
0.806038
0.804285
0.800903
0.795926
0.7894
0.781378
0.771924
0.761111
0.749022
0.735748
0.721387
0.706049
0.68985
0.672913
0.655372
0.637364
0.619037
0.600543
0.582041
0.563697
0.545684
0.528179
0.511366
0.495434
0.480575
0.466987
0.454867
0.444412
0.435809
0.429224
0.42478
0.422507
0.422282
0.423735
0.425851
-0.000867629
0.000340515
-0.000688426
-0.00403366
-0.00941262
-0.0166183
-0.0254032
-0.0354904
-0.0466072
-0.0584975
-0.0709264
-0.0836825
-0.0965776
-0.109446
-0.122142
-0.134539
-0.146527
-0.158012
-0.168913
-0.179161
-0.188698
-0.197474
-0.20545
-0.212589
-0.218865
-0.224253
-0.228735
-0.232295
-0.23492
-0.236601
-0.23733
-0.2371
-0.235907
-0.233746
-0.230616
-0.226514
-0.22144
-0.215392
-0.208373
-0.200384
-0.191427
-0.181505
-0.170623
-0.158788
-0.146007
-0.13229
-0.117646
-0.102091
-0.0856378
-0.0683061
-0.0501161
-0.0310913
-0.0112581
0.00935386
0.0307116
0.052779
0.075516
0.0988793
0.122822
0.147293
0.172238
0.197599
0.223314
0.249318
0.275542
0.301916
0.328364
0.354809
0.381171
0.407368
0.433316
0.458931
0.484126
0.508815
0.53291
0.556325
0.578974
0.600774
0.621643
0.6415
0.660269
0.677877
0.694256
0.709341
0.723074
0.735401
0.746277
0.75566
0.763519
0.769827
0.774567
0.777731
0.779316
0.779331
0.777793
0.774727
0.770167
0.764158
0.756751
0.748008
0.737998
0.726802
0.714505
0.701202
0.686997
0.672001
0.65633
0.640111
0.623473
0.606556
0.589502
0.57246
0.555587
0.53904
0.522985
0.507588
0.493021
0.479454
0.46706
0.456008
0.446458
0.438556
0.432424
0.428135
0.42568
0.424952
0.425846
0.427965
6.84682e-05
0.00138643
0.000347875
-0.0028572
-0.00785034
-0.014449
-0.0224531
-0.0316326
-0.0417571
-0.052606
-0.0639732
-0.0756696
-0.0875242
-0.0993839
-0.111113
-0.122591
-0.133713
-0.144389
-0.154539
-0.164096
-0.173001
-0.181204
-0.188664
-0.195346
-0.201219
-0.206259
-0.210445
-0.21376
-0.21619
-0.217724
-0.218353
-0.218068
-0.216864
-0.214736
-0.211681
-0.207696
-0.202779
-0.19693
-0.190149
-0.182438
-0.173797
-0.164232
-0.153746
-0.142345
-0.130036
-0.11683
-0.102735
-0.087767
-0.0719393
-0.0552702
-0.0377796
-0.0194907
-0.000429059
0.0193764
0.0398938
0.061088
0.0829203
0.105349
0.128328
0.15181
0.175741
0.200065
0.224724
0.249655
0.274792
0.300067
0.325407
0.35074
0.375989
0.401075
0.425919
0.45044
0.474554
0.498181
0.521236
0.543638
0.565306
0.586159
0.60612
0.625113
0.643065
0.659908
0.675577
0.690011
0.703155
0.71496
0.72538
0.73438
0.741929
0.748003
0.752586
0.755671
0.757258
0.757356
0.75598
0.753157
0.74892
0.743313
0.736385
0.728196
0.718814
0.708314
0.69678
0.684304
0.670984
0.656926
0.642242
0.627051
0.611478
0.595654
0.579714
0.5638
0.548056
0.532631
0.517678
0.503352
0.489807
0.477199
0.465682
0.455404
0.446503
0.439102
0.433303
0.429169
0.426698
0.425836
0.426738
0.429424
0.00364718
0.00474625
0.00355093
0.000330818
-0.00450924
-0.010789
-0.0183285
-0.0269254
-0.0363781
-0.0464932
-0.057088
-0.0679931
-0.0790533
-0.0901285
-0.101093
-0.111835
-0.122254
-0.132266
-0.141794
-0.150772
-0.159144
-0.166861
-0.173882
-0.18017
-0.185696
-0.190435
-0.194365
-0.197468
-0.19973
-0.201138
-0.201682
-0.201353
-0.200145
-0.198052
-0.19507
-0.191196
-0.186428
-0.180764
-0.174205
-0.166751
-0.158403
-0.149165
-0.139042
-0.128038
-0.116161
-0.10342
-0.0898241
-0.0753874
-0.060124
-0.0440512
-0.0271885
-0.009558
0.00881517
0.0279032
0.0476751
0.0680969
0.0891314
0.110738
0.132873
0.155489
0.178535
0.201958
0.225701
0.249703
0.273902
0.29823
0.32262
0.347
0.371297
0.395435
0.419339
0.442929
0.466128
0.488855
0.511032
0.53258
0.55342
0.573477
0.592675
0.610942
0.62821
0.644411
0.659485
0.673374
0.686024
0.69739
0.707428
0.716105
0.723391
0.729264
0.733711
0.736724
0.738304
0.738461
0.73721
0.734577
0.730596
0.725307
0.718761
0.711014
0.702134
0.692192
0.68127
0.669455
0.656843
0.643535
0.629639
0.615268
0.600543
0.585586
0.570528
0.555501
0.540642
0.526092
0.511993
0.498487
0.485719
0.473832
0.462964
0.453251
0.444816
0.437772
0.432215
0.428216
0.425794
0.424951
0.42602
0.429229
0.00971849
0.0101622
0.00855488
0.00513893
0.000271148
-0.00587656
-0.0131396
-0.0213395
-0.0302997
-0.0398503
-0.0498297
-0.060087
-0.0704828
-0.08089
-0.0911935
-0.10129
-0.111088
-0.120505
-0.129471
-0.137924
-0.145808
-0.153077
-0.159691
-0.165614
-0.170818
-0.175275
-0.178966
-0.181872
-0.183977
-0.185269
-0.185737
-0.185372
-0.184166
-0.182114
-0.179211
-0.175452
-0.170835
-0.16536
-0.159023
-0.151827
-0.143773
-0.134862
-0.1251
-0.11449
-0.10304
-0.0907575
-0.0776532
-0.0637388
-0.0490286
-0.0335387
-0.0172882
-0.00029835
0.0174068
0.0358003
0.0548525
0.0745305
0.0947985
0.115617
0.136945
0.158736
0.180941
0.203508
0.226383
0.249508
0.272822
0.29626
0.319758
0.343245
0.366653
0.389907
0.412936
0.435662
0.458011
0.479906
0.50127
0.522029
0.542106
0.561429
0.579926
0.597526
0.614165
0.629778
0.644306
0.657695
0.669893
0.680855
0.690542
0.69892
0.705963
0.711649
0.715966
0.718907
0.720474
0.720675
0.719529
0.717059
0.713298
0.708286
0.702073
0.694714
0.686272
0.676819
0.666433
0.655198
0.643206
0.630555
0.617348
0.603693
0.589706
0.575503
0.561208
0.546947
0.53285
0.519047
0.505672
0.492857
0.480738
0.469444
0.459104
0.449842
0.441773
0.435001
0.42962
0.42571
0.423313
0.422465
0.423596
0.427027
0.0180042
0.0174464
0.0151927
0.0114017
0.00633279
0.000144258
-0.00701349
-0.0149845
-0.0236148
-0.0327556
-0.0422651
-0.0520094
-0.0618643
-0.0717157
-0.0814594
-0.0910014
-0.100257
-0.109152
-0.11762
-0.125602
-0.133046
-0.13991
-0.146153
-0.151743
-0.15665
-0.16085
-0.164322
-0.167047
-0.169011
-0.1702
-0.170603
-0.17021
-0.169015
-0.16701
-0.16419
-0.160551
-0.156089
-0.150803
-0.144692
-0.137754
-0.129992
-0.121406
-0.112001
-0.101781
-0.0907511
-0.0789203
-0.0662973
-0.0528937
-0.0387227
-0.0238
-0.00814339
0.0082266
0.025287
0.043012
0.0613731
0.0803389
0.0998747
0.119943
0.140503
0.161512
0.182922
0.204683
0.226742
0.249043
0.271528
0.294136
0.316802
0.33946
0.362043
0.384479
0.406699
0.428629
0.450196
0.471327
0.491947
0.511983
0.531364
0.550018
0.567875
0.584869
0.600936
0.616014
0.630047
0.642981
0.654768
0.665364
0.674731
0.682837
0.689656
0.69517
0.699364
0.702234
0.703781
0.704016
0.702954
0.70062
0.697046
0.692271
0.686343
0.679316
0.671253
0.662221
0.652296
0.64156
0.630102
0.618015
0.605399
0.592358
0.579001
0.565441
0.551795
0.538182
0.524723
0.511544
0.498769
0.486522
0.474927
0.464107
0.45418
0.44526
0.437455
0.430865
0.425585
0.421697
0.419257
0.418327
0.419363
0.422708
0.0281814
0.0263719
0.0232789
0.0189514
0.0135225
0.00713503
-7.44545e-05
-0.00797113
-0.016422
-0.0252978
-0.0344744
-0.0438343
-0.0532677
-0.062673
-0.071957
-0.0810354
-0.0898316
-0.0982772
-0.106312
-0.113881
-0.120937
-0.12744
-0.133352
-0.138643
-0.143285
-0.147254
-0.15053
-0.153095
-0.154934
-0.156034
-0.156385
-0.155976
-0.1548
-0.152849
-0.150119
-0.146604
-0.142301
-0.137207
-0.131321
-0.124641
-0.117169
-0.108905
-0.0998524
-0.0900147
-0.0793975
-0.0680076
-0.0558537
-0.0429464
-0.0292981
-0.0149234
0.000160772
0.015935
0.0323774
0.0494634
0.0671659
0.0854546
0.104297
0.123656
0.143493
0.163766
0.18443
0.205437
0.226736
0.248272
0.26999
0.291829
0.313728
0.335624
0.357449
0.379138
0.400619
0.421824
0.442681
0.463118
0.483065
0.502449
0.521202
0.539254
0.556537
0.572987
0.588542
0.603142
0.616731
0.629259
0.640678
0.650947
0.660027
0.667889
0.674507
0.679862
0.683943
0.686744
0.688268
0.688524
0.687528
0.685304
0.681883
0.677305
0.671616
0.664867
0.65712
0.648442
0.638904
0.628587
0.617576
0.605962
0.593839
0.58131
0.568477
0.555448
0.542335
0.529252
0.516313
0.503636
0.491338
0.479536
0.468345
0.457881
0.448252
0.439566
0.431926
0.425425
0.420158
0.41621
0.413643
0.412532
0.413315
0.41631
0.0399158
0.0366806
0.0325977
0.0275972
0.0216719
0.0149486
0.00755117
-0.000405805
-0.00880901
-0.017547
-0.0265124
-0.0356028
-0.0447223
-0.0537814
-0.0626979
-0.0713966
-0.0798095
-0.0878751
-0.0955386
-0.102751
-0.10947
-0.115656
-0.121278
-0.126305
-0.130712
-0.134477
-0.13758
-0.140006
-0.141739
-0.142766
-0.143078
-0.142665
-0.141518
-0.139631
-0.136997
-0.133612
-0.129472
-0.124573
-0.118914
-0.112492
-0.105309
-0.097364
-0.0886595
-0.0791986
-0.068986
-0.0580276
-0.0463313
-0.0339067
-0.0207653
-0.00692058
0.00761152
0.0228128
0.0386627
0.055138
0.0722126
0.089858
0.108042
0.126731
0.145888
0.16547
0.185437
0.20574
0.22633
0.247157
0.268164
0.289294
0.310489
0.331685
0.352818
0.373824
0.394635
0.415182
0.435396
0.455208
0.474549
0.493348
0.511538
0.529052
0.545823
0.561789
0.576888
0.591063
0.60426
0.616429
0.627522
0.6375
0.646326
0.653971
0.660409
0.665622
0.669599
0.672335
0.673833
0.6741
0.673154
0.671017
0.667721
0.663303
0.657809
0.651289
0.643803
0.635415
0.626196
0.616223
0.605579
0.594352
0.582633
0.570519
0.55811
0.54551
0.532824
0.520161
0.50763
0.495343
0.483409
0.471938
0.46104
0.450821
0.441384
0.432831
0.425258
0.418755
0.413412
0.409316
0.406531
0.405135
0.405517
0.407948
0.0528925
0.0481148
0.0429294
0.0371457
0.0306104
0.0234356
0.015734
0.00760083
-0.00086875
-0.00958001
-0.0184411
-0.0273642
-0.0362662
-0.0450694
-0.0537022
-0.0620988
-0.0701994
-0.07795
-0.0853018
-0.0922113
-0.09864
-0.104554
-0.109923
-0.114721
-0.118924
-0.122512
-0.125468
-0.127776
-0.129422
-0.130394
-0.130682
-0.130277
-0.129171
-0.127356
-0.124828
-0.121579
-0.117607
-0.112908
-0.107478
-0.101316
-0.0944206
-0.0867926
-0.0784329
-0.0693437
-0.0595288
-0.0489934
-0.0377441
-0.0257896
-0.0131404
0.000191232
0.0141905
0.0288406
0.0441221
0.0600131
0.0764891
0.0935229
0.111084
0.129141
0.147655
0.16659
0.185904
0.20555
0.225483
0.245652
0.266003
0.286482
0.307029
0.327586
0.348089
0.368475
0.388678
0.408632
0.428268
0.44752
0.466318
0.484596
0.502286
0.519322
0.535641
0.55118
0.565878
0.579681
0.592533
0.604387
0.615196
0.62492
0.633524
0.640978
0.647258
0.652346
0.65623
0.658906
0.660375
0.660647
0.659737
0.657668
0.65447
0.65018
0.644841
0.638505
0.631228
0.623074
0.614111
0.604414
0.594063
0.583143
0.571744
0.559958
0.547881
0.535614
0.523257
0.510913
0.498687
0.486685
0.475009
0.463766
0.453057
0.442982
0.433638
0.425122
0.417523
0.410928
0.405423
0.401091
0.397996
0.396215
0.396071
0.397771
0.0668239
0.0604293
0.0540603
0.0474071
0.0401696
0.0324471
0.024343
0.0159347
0.00730023
-0.00148108
-0.0103319
-0.019178
-0.0279487
-0.0365778
-0.0450035
-0.0531694
-0.0610238
-0.0685201
-0.075616
-0.0822735
-0.088459
-0.0941424
-0.0992973
-0.1039
-0.107931
-0.111371
-0.114204
-0.116416
-0.117995
-0.118929
-0.11921
-0.118827
-0.117774
-0.116042
-0.113628
-0.110524
-0.106726
-0.10223
-0.0970328
-0.091132
-0.0845259
-0.0772139
-0.0691962
-0.0604744
-0.0510512
-0.0409307
-0.0301187
-0.0186226
-0.0064516
0.00638294
0.0198677
0.0339871
0.0487231
0.0640554
0.0799607
0.0964135
0.113385
0.130844
0.148756
0.167083
0.185787
0.204823
0.224146
0.243707
0.263455
0.283336
0.303292
0.323267
0.343199
0.363025
0.382681
0.402103
0.421224
0.439977
0.458295
0.476112
0.493363
0.509981
0.525904
0.541071
0.555422
0.568902
0.581458
0.59304
0.603605
0.613112
0.621525
0.628816
0.63496
0.63994
0.643743
0.646366
0.647808
0.648079
0.647194
0.645176
0.642053
0.637862
0.632645
0.626452
0.619338
0.611365
0.6026
0.593115
0.58299
0.572305
0.561148
0.549608
0.537778
0.525754
0.513633
0.501515
0.489498
0.477684
0.46617
0.455056
0.444439
0.434414
0.425071
0.4165
0.408788
0.402016
0.396265
0.391613
0.388122
0.385867
0.385093
0.385937
0.0814499
0.0733943
0.0657857
0.0581973
0.0501844
0.0418357
0.0332473
0.0244801
0.0155964
0.00666126
-0.00226149
-0.0111103
-0.0198265
-0.0283546
-0.0366427
-0.0446432
-0.0523127
-0.0596115
-0.0665039
-0.0729579
-0.0789445
-0.0844382
-0.0894163
-0.0938587
-0.0977474
-0.101067
-0.103802
-0.105942
-0.107475
-0.10839
-0.108679
-0.108333
-0.107346
-0.10571
-0.103419
-0.100468
-0.0968513
-0.0925649
-0.0876048
-0.081968
-0.0756521
-0.0686557
-0.0609783
-0.0526202
-0.0435834
-0.0338708
-0.0234871
-0.0124384
-0.000732787
0.0116198
0.0246073
0.0382155
0.052428
0.0672257
0.082587
0.0984877
0.114901
0.131796
0.149142
0.166901
0.185036
0.203505
0.222264
0.241266
0.26046
0.279795
0.299215
0.318663
0.33808
0.357404
0.376572
0.395521
0.414186
0.4325
0.450398
0.467814
0.484682
0.50094
0.516523
0.531372
0.545428
0.558634
0.57094
0.582295
0.592655
0.601981
0.610236
0.617392
0.623424
0.628314
0.632051
0.634627
0.636046
0.636314
0.635447
0.633466
0.630399
0.626282
0.621156
0.615069
0.608076
0.600236
0.591617
0.582287
0.572324
0.561807
0.55082
0.539451
0.527788
0.515925
0.503956
0.491975
0.480079
0.468361
0.456918
0.445843
0.435229
0.425163
0.415734
0.407025
0.399117
0.392088
0.386012
0.380962
0.376999
0.374192
0.372704
0.372598
0.0965356
0.0867966
0.0779115
0.0693396
0.0604945
0.0514569
0.042317
0.0331208
0.0239164
0.0147555
0.00568955
-0.00323195
-0.0119614
-0.0204538
-0.0286669
-0.0365615
-0.0441021
-0.0512561
-0.0579944
-0.0642904
-0.0701207
-0.0754639
-0.0803014
-0.0846163
-0.0883937
-0.0916203
-0.0942842
-0.0963747
-0.097882
-0.0987973
-0.0991124
-0.0988198
-0.0979125
-0.096384
-0.094228
-0.091439
-0.0880117
-0.0839413
-0.0792233
-0.0738541
-0.0678306
-0.0611504
-0.053812
-0.0458151
-0.0371602
-0.0278493
-0.0178858
-0.00727463
0.00397754
0.0158621
0.0283686
0.0414841
0.0551936
0.0694796
0.0843222
0.0996985
0.115583
0.131948
0.148761
0.16599
0.183596
0.20154
0.219778
0.238267
0.256956
0.275794
0.294729
0.313703
0.332659
0.351537
0.370274
0.388808
0.407073
0.425006
0.442541
0.459613
0.476157
0.492109
0.507408
0.521991
0.535802
0.548784
0.560885
0.572056
0.582252
0.591433
0.599563
0.606613
0.612558
0.617379
0.621063
0.623605
0.625006
0.625272
0.624417
0.622463
0.619436
0.615371
0.61031
0.604297
0.597388
0.589639
0.581117
0.57189
0.562032
0.551621
0.540739
0.52947
0.517902
0.506124
0.494226
0.482302
0.470442
0.458739
0.447281
0.43616
0.425463
0.415275
0.405678
0.396751
0.388571
0.38121
0.374737
0.369218
0.364715
0.361291
0.359022
0.357899
0.111868
0.100439
0.0902552
0.0806655
0.0709454
0.0611694
0.0514237
0.041741
0.0321558
0.0227081
0.0134374
0.00438232
-0.0044202
-0.012935
-0.021129
-0.0289715
-0.0364344
-0.0434923
-0.0501222
-0.0563034
-0.0620174
-0.0672477
-0.0719794
-0.0761992
-0.0798953
-0.083057
-0.0856746
-0.0877393
-0.089243
-0.090178
-0.0905373
-0.090314
-0.0895016
-0.0880938
-0.0860846
-0.0834682
-0.0802391
-0.076392
-0.0719222
-0.0668251
-0.0610969
-0.0547343
-0.047735
-0.0400974
-0.031821
-0.0229066
-0.0133563
-0.00317367
0.00763598
0.0190655
0.0311059
0.0437458
0.0569717
0.0707678
0.0851154
0.0999936
0.115378
0.131243
0.147558
0.16429
0.181405
0.198863
0.216624
0.234643
0.252872
0.271262
0.289761
0.308313
0.326861
0.345345
0.363706
0.381879
0.399802
0.41741
0.434638
0.451421
0.467695
0.483397
0.498463
0.512834
0.52645
0.539255
0.551198
0.562228
0.5723
0.581374
0.589413
0.596387
0.60227
0.607043
0.610694
0.613214
0.614605
0.614872
0.614028
0.612094
0.609095
0.605066
0.600046
0.59408
0.587221
0.579527
0.571059
0.561887
0.552082
0.54172
0.530882
0.51965
0.508108
0.496345
0.484446
0.472503
0.460603
0.448835
0.437284
0.426038
0.415181
0.404793
0.394952
0.385733
0.377209
0.369447
0.362511
0.35646
0.351357
0.34726
0.34416
0.341971
0.127255
0.114139
0.102645
0.092015
0.0813885
0.0708363
0.0604418
0.0502255
0.04021
0.0304238
0.0208959
0.0116545
0.00272658
-0.00586195
-0.0140869
-0.0219256
-0.0293575
-0.0363639
-0.0429278
-0.0490344
-0.0546702
-0.0598232
-0.0644826
-0.0686388
-0.0722829
-0.075407
-0.0780038
-0.0800664
-0.0815883
-0.0825633
-0.0829853
-0.0828483
-0.0821463
-0.0808734
-0.0790235
-0.0765909
-0.0735697
-0.0699543
-0.0657395
-0.0609199
-0.055491
-0.0494485
-0.0427891
-0.0355101
-0.0276097
-0.0190876
-0.00994446
-0.000182509
0.0101944
0.0211807
0.0327687
0.0449489
0.0577093
0.0710355
0.0849107
0.0993153
0.114227
0.129621
0.145468
0.161739
0.178398
0.195409
0.212732
0.230323
0.248137
0.266125
0.284235
0.302413
0.320603
0.338746
0.356782
0.374649
0.392283
0.40962
0.426596
0.443146
0.459204
0.474709
0.489596
0.503804
0.517275
0.529953
0.541783
0.552715
0.562705
0.571709
0.579692
0.586622
0.592471
0.597221
0.600857
0.603372
0.604763
0.605037
0.604206
0.602288
0.59931
0.595303
0.590306
0.584364
0.577528
0.569853
0.561403
0.552242
0.542443
0.53208
0.52123
0.509976
0.498399
0.486584
0.474617
0.462585
0.450573
0.438667
0.426951
0.415507
0.404416
0.393755
0.3836
0.374021
0.365086
0.356859
0.3494
0.342762
0.337006
0.332191
0.328219
0.324933
0.142518
0.127727
0.114921
0.103236
0.0916816
0.0803249
0.069248
0.0584607
0.0479741
0.0378066
0.027977
0.0185039
0.00940517
0.000697705
-0.00760258
-0.015481
-0.022924
-0.0299195
-0.0364568
-0.0425263
-0.0481196
-0.0532292
-0.0578485
-0.0619713
-0.065592
-0.0687055
-0.0713067
-0.0733908
-0.074953
-0.0759885
-0.0764923
-0.0764592
-0.0758838
-0.0747604
-0.0730832
-0.0708464
-0.0680438
-0.0646694
-0.0607173
-0.0561817
-0.051057
-0.045338
-0.0390203
-0.0321001
-0.0245744
-0.0164415
-0.00770061
0.00164736
0.0116001
0.0221536
0.0333019
0.0450369
0.0573484
0.0702236
0.0836472
0.0976014
0.112065
0.127016
0.142426
0.158266
0.174504
0.191104
0.208027
0.225231
0.242672
0.260301
0.278068
0.29592
0.313801
0.331653
0.349415
0.367027
0.384425
0.401545
0.418322
0.434691
0.450588
0.465947
0.480707
0.494805
0.508181
0.520778
0.532542
0.543422
0.553371
0.562345
0.570308
0.577226
0.583072
0.587825
0.591469
0.593995
0.595402
0.595692
0.594878
0.592977
0.590014
0.58602
0.581033
0.575095
0.568258
0.560575
0.552108
0.542923
0.533087
0.522675
0.511765
0.500434
0.488765
0.476839
0.464741
0.452554
0.440364
0.428253
0.416303
0.404593
0.3932
0.3822
0.371665
0.361661
0.352255
0.343505
0.335467
0.328191
0.321738
0.316167
0.311292
0.306886
0.157495
0.141046
0.126932
0.114186
0.101689
0.0895071
0.0777224
0.0663344
0.055344
0.0447598
0.0345914
0.0248482
0.0155393
0.00667337
-0.0017416
-0.0096984
-0.0171905
-0.0242124
-0.030759
-0.0368262
-0.0424105
-0.0475089
-0.0521187
-0.0562374
-0.0598626
-0.0629918
-0.0656224
-0.0677516
-0.0693764
-0.0704932
-0.0710982
-0.071187
-0.0707549
-0.0697966
-0.0683063
-0.066278
-0.0637055
-0.0605823
-0.0569018
-0.0526574
-0.0478427
-0.0424517
-0.0364786
-0.0299186
-0.0227673
-0.0150216
-0.00667935
0.0022601
0.011796
0.021926
0.0326457
0.0439487
0.0558264
0.0682678
0.0812593
0.0947845
0.108825
0.123357
0.138358
0.153798
0.169647
0.18587
0.20243
0.219286
0.236393
0.253706
0.271175
0.288746
0.306364
0.323973
0.341512
0.358919
0.376133
0.393087
0.409718
0.425959
0.441746
0.457014
0.471698
0.485736
0.499067
0.511633
0.523378
0.53425
0.544201
0.553187
0.561167
0.568109
0.573983
0.578767
0.582444
0.585003
0.586442
0.586762
0.585974
0.584094
0.581146
0.577159
0.57217
0.566223
0.559365
0.55165
0.543139
0.533894
0.523985
0.513484
0.502467
0.491011
0.479196
0.467105
0.454818
0.442418
0.429988
0.417609
0.40536
0.39332
0.381562
0.37016
0.359184
0.348697
0.338762
0.329436
0.320771
0.312812
0.305623
0.299263
0.293462
0.287922
0.172034
0.153949
0.138535
0.124726
0.111279
0.0982592
0.0857482
0.0737368
0.0622165
0.051187
0.0406489
0.0306031
0.0210505
0.0119919
0.00342763
-0.00464212
-0.0122176
-0.0192994
-0.0258884
-0.0319856
-0.0375923
-0.0427098
-0.0473395
-0.0514822
-0.0551387
-0.0583094
-0.0609941
-0.0631919
-0.0649014
-0.0661205
-0.0668466
-0.067076
-0.0668045
-0.0660272
-0.0647387
-0.0629326
-0.0606026
-0.0577415
-0.0543423
-0.0503975
-0.0458999
-0.0408423
-0.0352179
-0.0290205
-0.0222446
-0.0148854
-0.0069394
0.0015957
0.0107208
0.020435
0.0307358
0.0416185
0.0530761
0.0650994
0.0776765
0.0907928
0.104431
0.11857
0.133188
0.148257
0.163747
0.179626
0.195857
0.212401
0.229214
0.246251
0.263463
0.280797
0.298199
0.315612
0.332975
0.350228
0.367306
0.384146
0.400682
0.416848
0.432578
0.447806
0.462466
0.476496
0.489832
0.502416
0.51419
0.525101
0.535098
0.544137
0.552175
0.559178
0.565115
0.569961
0.573698
0.576315
0.577805
0.578171
0.577421
0.57557
0.57264
0.56866
0.563665
0.557696
0.550802
0.543036
0.534456
0.525125
0.51511
0.504483
0.493318
0.481693
0.469686
0.457378
0.444849
0.432181
0.419454
0.406748
0.394143
0.381712
0.36953
0.357668
0.346193
0.335168
0.324652
0.314701
0.305363
0.296681
0.288722
0.281546
0.2748
0.268116
0.185994
0.166296
0.149595
0.134727
0.120328
0.106462
0.0932117
0.0805602
0.0684898
0.0569918
0.0460589
0.0356835
0.0258588
0.0165779
0.00783417
-0.000379133
-0.00806866
-0.015241
-0.0219025
-0.0280595
-0.0337179
-0.0388832
-0.0435605
-0.0477544
-0.0514685
-0.0547059
-0.0574688
-0.0597584
-0.0615749
-0.0629175
-0.0637847
-0.0641737
-0.0640807
-0.0635014
-0.0624301
-0.0608607
-0.0587863
-0.0561994
-0.0530921
-0.0494564
-0.0452838
-0.0405663
-0.0352958
-0.0294648
-0.0230663
-0.0160943
-0.00854347
-0.000409971
0.00830875
0.0176136
0.0275037
0.0379762
0.0490258
0.0606451
0.0728239
0.0855493
0.0988056
0.112574
0.126833
0.141557
0.156717
0.172283
0.188218
0.204485
0.221041
0.237841
0.254837
0.271977
0.289206
0.306468
0.323703
0.340849
0.357842
0.374618
0.391111
0.407253
0.422977
0.438217
0.452906
0.466978
0.480371
0.493023
0.504875
0.515872
0.525962
0.535098
0.543236
0.55034
0.556376
0.561318
0.565147
0.567848
0.569414
0.569846
0.56915
0.567339
0.564435
0.560464
0.555461
0.549466
0.542526
0.534693
0.526025
0.516583
0.506434
0.495649
0.484301
0.472466
0.460224
0.447653
0.434834
0.421847
0.408771
0.395684
0.382666
0.36979
0.357129
0.344752
0.332725
0.32111
0.309965
0.299343
0.289291
0.27985
0.271089
0.263073
0.255367
0.247535
0.199243
0.177957
0.159984
0.144065
0.128715
0.113999
0.100002
0.0866989
0.0740633
0.062079
0.0507309
0.0400037
0.0298828
0.0203545
0.011405
0.00302113
-0.00480987
-0.0121004
-0.0188622
-0.0251065
-0.0308438
-0.0360838
-0.0408354
-0.0451063
-0.0489033
-0.0522321
-0.0550971
-0.0575015
-0.0594471
-0.0609346
-0.0619633
-0.0625312
-0.0626353
-0.0622712
-0.0614335
-0.060116
-0.0583113
-0.0560115
-0.0532079
-0.0498916
-0.0460533
-0.0416837
-0.0367735
-0.0313139
-0.0252964
-0.0187135
-0.0115582
-0.00382504
0.00449034
0.0133906
0.0228766
0.0329473
0.0435993
0.0548269
0.0666217
0.0789726
0.0918655
0.105284
0.119206
0.13361
0.148468
0.163749
0.17942
0.195443
0.211777
0.228377
0.245196
0.262182
0.279282
0.296437
0.313589
0.330676
0.347633
0.364394
0.380894
0.397063
0.412834
0.428138
0.442907
0.457075
0.470576
0.483348
0.495328
0.506461
0.516692
0.525971
0.534254
0.5415
0.547675
0.552751
0.556705
0.559521
0.561191
0.561712
0.561089
0.559335
0.556468
0.552514
0.547506
0.541483
0.53449
0.52658
0.517808
0.508236
0.49793
0.48696
0.475397
0.463318
0.450802
0.437926
0.424772
0.411418
0.397944
0.384427
0.370945
0.357573
0.34438
0.331437
0.318808
0.306556
0.294736
0.283401
0.272597
0.262362
0.252773
0.243895
0.235215
0.22623
0.211654
0.188807
0.16958
0.152619
0.136323
0.120759
0.106012
0.0920497
0.0788382
0.066354
0.0545746
0.0434773
0.0330405
0.0232432
0.0140653
0.00548721
-0.00250968
-0.00994332
-0.0168307
-0.0231877
-0.0290295
-0.0343696
-0.0392206
-0.0435935
-0.0474979
-0.0509421
-0.0539327
-0.0564748
-0.0585717
-0.0602254
-0.0614362
-0.062203
-0.0625229
-0.0623921
-0.0618051
-0.0607555
-0.0592355
-0.0572366
-0.0547495
-0.0517643
-0.0482706
-0.044258
-0.0397158
-0.034634
-0.0290024
-0.022812
-0.0160541
-0.00872156
-0.00080815
0.00769058
0.0167774
0.026453
0.0367159
0.0475623
0.0589856
0.0709765
0.0835227
0.0966088
0.110216
0.124323
0.138903
0.153927
0.169362
0.185173
0.201318
0.217754
0.234433
0.251305
0.268316
0.285409
0.302523
0.319596
0.336564
0.35336
0.369917
0.386165
0.402034
0.417455
0.432358
0.446674
0.460337
0.47328
0.485441
0.496761
0.507182
0.516654
0.525128
0.532562
0.538919
0.544168
0.548284
0.55125
0.553054
0.553692
0.553167
0.551489
0.548675
0.54475
0.539744
0.533696
0.52665
0.518656
0.509771
0.500054
0.489571
0.478391
0.466587
0.454234
0.441409
0.428191
0.414661
0.400898
0.38698
0.372987
0.358994
0.345075
0.331303
0.317746
0.304469
0.291534
0.278996
0.266908
0.255316
0.244257
0.233812
0.224053
0.214387
0.204245
0.223108
0.198728
0.178267
0.160276
0.143043
0.126634
0.111137
0.0965114
0.0827171
0.0697233
0.0575002
0.0460184
0.0352491
0.0251648
0.0157389
0.00694598
-0.0012385
-0.00883775
-0.0158737
-0.0223671
-0.0283371
-0.0338012
-0.0387756
-0.0432744
-0.0473101
-0.0508932
-0.0540325
-0.0567348
-0.0590051
-0.0608466
-0.0622605
-0.0632462
-0.0638015
-0.0639226
-0.0636041
-0.0628393
-0.0616199
-0.0599369
-0.0577801
-0.0551386
-0.0520012
-0.0483559
-0.0441909
-0.0394946
-0.0342554
-0.0284625
-0.0221055
-0.0151755
-0.00766435
0.000434193
0.00912482
0.0184102
0.0282907
0.0387644
0.0498267
0.0614701
0.0736841
0.086455
0.0997657
0.113596
0.127921
0.142713
0.157941
0.173568
0.189556
0.205861
0.222437
0.239233
0.256195
0.273267
0.290386
0.307492
0.324518
0.341398
0.358062
0.374439
0.390459
0.40605
0.42114
0.435659
0.449537
0.462706
0.475102
0.486661
0.497326
0.507041
0.515756
0.523425
0.53001
0.535476
0.539797
0.542951
0.544924
0.545711
0.545311
0.543733
0.540993
0.537113
0.532122
0.526056
0.51896
0.510881
0.501876
0.492004
0.481329
0.469922
0.457853
0.445199
0.432035
0.418442
0.404499
0.390287
0.375885
0.361371
0.346822
0.332313
0.317916
0.3037
0.28973
0.276069
0.262773
0.249895
0.237479
0.225566
0.214241
0.203581
0.192918
0.181615
0.23349
0.207607
0.185931
0.166925
0.148765
0.131518
0.115273
0.0999848
0.0856043
0.0720944
0.0594187
0.047541
0.0364259
0.0260394
0.016349
0.00732304
-0.00106829
-0.00885342
-0.0160592
-0.0227106
-0.028831
-0.0344419
-0.0395626
-0.0442103
-0.0484002
-0.0521451
-0.0554558
-0.0583409
-0.0608068
-0.0628576
-0.0644957
-0.065721
-0.0665317
-0.0669241
-0.0668926
-0.0664303
-0.0655284
-0.0641772
-0.0623656
-0.060082
-0.0573135
-0.0540474
-0.0502702
-0.0459688
-0.04113
-0.0357411
-0.0297903
-0.0232664
-0.0161598
-0.00846198
-0.000166412
0.00873156
0.0182343
0.028342
0.0390517
0.050358
0.0622522
0.0747223
0.087753
0.101325
0.115416
0.13
0.145045
0.160517
0.176378
0.192585
0.209091
0.225848
0.2428
0.25989
0.277058
0.294241
0.311372
0.328383
0.345204
0.361762
0.377985
0.393799
0.409131
0.423907
0.438057
0.451508
0.464194
0.476049
0.487011
0.497024
0.506032
0.513988
0.52085
0.526581
0.53115
0.534534
0.536717
0.537688
0.537447
0.535999
0.533357
0.529542
0.524582
0.518511
0.511372
0.503213
0.494087
0.484053
0.473177
0.461527
0.449175
0.436197
0.422669
0.40867
0.394282
0.379586
0.36466
0.349586
0.33444
0.319298
0.304233
0.289316
0.274611
0.260183
0.24609
0.232385
0.219114
0.206317
0.194088
0.182509
0.170835
0.158363
0.242691
0.215333
0.192465
0.17246
0.153385
0.135308
0.118322
0.102373
0.0874055
0.073376
0.0602416
0.0479595
0.036488
0.0257869
0.0158176
0.00654295
-0.0020723
-0.0100616
-0.0174564
-0.024286
-0.0305779
-0.0363569
-0.0416457
-0.0464645
-0.0508309
-0.05476
-0.0582647
-0.0613549
-0.0640384
-0.0663205
-0.0682043
-0.0696903
-0.0707769
-0.0714605
-0.0717354
-0.0715941
-0.0710276
-0.0700253
-0.0685752
-0.0666645
-0.0642794
-0.0614056
-0.0580283
-0.0541327
-0.0497039
-0.0447276
-0.0391898
-0.0330778
-0.0263797
-0.0190852
-0.0111856
-0.0026743
0.00645327
0.0161991
0.0265625
0.0375399
0.0491245
0.0613062
0.0740712
0.0874024
0.101278
0.115674
0.130559
0.145902
0.161663
0.177802
0.194272
0.211024
0.228003
0.245152
0.262411
0.279715
0.296996
0.314187
0.331214
0.348004
0.364483
0.380575
0.396204
0.411294
0.425771
0.439563
0.452596
0.464805
0.476122
0.486489
0.495847
0.504145
0.511337
0.517384
0.52225
0.525911
0.528346
0.529543
0.529498
0.528213
0.525699
0.521975
0.517068
0.51101
0.503841
0.495608
0.486365
0.47617
0.465087
0.453184
0.440534
0.427213
0.413297
0.398868
0.384006
0.368793
0.35331
0.337638
0.321856
0.306042
0.290268
0.274608
0.259129
0.243896
0.228968
0.214401
0.200243
0.186533
0.173375
0.160857
0.148157
0.13451
0.250604
0.221802
0.197764
0.176778
0.156802
0.137907
0.120187
0.103581
0.0880283
0.0734782
0.0598814
0.0471889
0.0353527
0.0243268
0.0140666
0.00452958
-0.00432475
-0.0125347
-0.0201362
-0.0271629
-0.0336457
-0.0396132
-0.0450911
-0.0501024
-0.0546671
-0.0588026
-0.0625232
-0.0658408
-0.0687642
-0.0712997
-0.0734509
-0.0752191
-0.0766027
-0.0775982
-0.0781997
-0.0783992
-0.078187
-0.0775517
-0.0764805
-0.0749594
-0.0729733
-0.0705066
-0.0675429
-0.0640657
-0.0600584
-0.0555048
-0.0503891
-0.0446966
-0.0384132
-0.0315267
-0.0240262
-0.0159029
-0.00715029
0.0022358
0.0122568
0.0229111
0.0341939
0.046097
0.0586085
0.0717127
0.0853899
0.0996162
0.114364
0.1296
0.145288
0.161387
0.177852
0.194632
0.211674
0.22892
0.24631
0.263777
0.281255
0.298672
0.315956
0.33303
0.349818
0.366242
0.382225
0.397687
0.412551
0.426741
0.440183
0.452805
0.464539
0.475319
0.485086
0.493784
0.501364
0.507781
0.512999
0.516988
0.519724
0.521192
0.521384
0.520301
0.517951
0.514349
0.509521
0.503497
0.496316
0.488023
0.478671
0.468318
0.457027
0.444866
0.431908
0.418229
0.403908
0.389026
0.373664
0.357906
0.341834
0.32553
0.309077
0.292552
0.276032
0.259591
0.243299
0.227222
0.211423
0.19596