/*--------------------------------*- C++ -*----------------------------------*\
  =========                 |
  \\      /  F ield         | OpenFOAM: The Open Source CFD Toolbox
   \\    /   O peration     | Website:  https://openfoam.org
    \\  /    A nd           | Version:  9
     \\/     M anipulation  |
\*---------------------------------------------------------------------------*/
FoamFile
{
    format      ascii;
    class       surfaceScalarField;
    location    "0.4";
    object      phi;
}
// * * * * * * * * * * * * * * * * * * * * * * * * * * * * * * * * * * * * * //

dimensions      [0 3 -1 0 0 0 0];

internalField   nonuniform List<scalar> 
32512
(
2.55709e-10
-2.95554e-10
1.09227e-09
-8.36587e-10
2.12458e-09
-1.03212e-09
3.07929e-09
-9.54703e-10
3.7861e-09
-7.06918e-10
4.14207e-09
-3.56156e-10
4.08831e-09
5.3746e-11
3.59477e-09
4.93558e-10
2.65071e-09
9.44062e-10
1.25816e-09
1.39253e-09
-5.72265e-10
1.83041e-09
-2.82424e-09
2.25199e-09
-5.47771e-09
2.65348e-09
-8.51021e-09
3.0325e-09
-1.18978e-08
3.38762e-09
-1.5616e-08
3.71815e-09
-1.96399e-08
4.02389e-09
-2.39449e-08
4.30503e-09
-2.85069e-08
4.56203e-09
-3.33025e-08
4.79556e-09
-3.8309e-08
5.00642e-09
-4.35045e-08
5.19549e-09
-4.88682e-08
5.36368e-09
-5.43801e-08
5.51192e-09
-6.00213e-08
5.64114e-09
-6.57735e-08
5.75222e-09
-7.16195e-08
5.84604e-09
-7.7543e-08
5.9234e-09
-8.3528e-08
5.98504e-09
-8.95597e-08
6.03163e-09
-9.56235e-08
6.06379e-09
-1.01706e-07
6.08203e-09
-1.07792e-07
6.08683e-09
-1.13871e-07
6.07857e-09
-1.19929e-07
6.05758e-09
-1.25953e-07
6.02412e-09
-1.31931e-07
5.97839e-09
-1.37852e-07
5.92053e-09
-1.43702e-07
5.85065e-09
-1.49471e-07
5.76877e-09
-1.55146e-07
5.67493e-09
-1.60715e-07
5.5691e-09
-1.66166e-07
5.45124e-09
-1.71488e-07
5.3213e-09
-1.76667e-07
5.17921e-09
-1.81692e-07
5.02489e-09
-1.8655e-07
4.85829e-09
-1.91229e-07
4.67935e-09
-1.95717e-07
4.48803e-09
-2.00002e-07
4.28432e-09
-2.0407e-07
4.06825e-09
-2.0791e-07
3.83988e-09
-2.11509e-07
3.5993e-09
-2.14856e-07
3.34667e-09
-2.17938e-07
3.0822e-09
-2.20744e-07
2.80614e-09
-2.23263e-07
2.51883e-09
-2.25484e-07
2.22065e-09
-2.27396e-07
1.91206e-09
-2.28989e-07
1.59361e-09
-2.30255e-07
1.26591e-09
-2.31185e-07
9.29631e-10
-2.3177e-07
5.85543e-10
-2.32005e-07
2.34483e-10
-2.31882e-07
-1.22634e-10
-2.31397e-07
-4.84816e-10
-2.30546e-07
-8.50999e-10
-2.29326e-07
-1.22005e-09
-2.27736e-07
-1.59076e-09
-2.25774e-07
-1.96186e-09
-2.23442e-07
-2.33204e-09
-2.20742e-07
-2.6999e-09
-2.17678e-07
-3.06403e-09
-2.14255e-07
-3.42296e-09
-2.1048e-07
-3.77519e-09
-2.06361e-07
-4.1192e-09
-2.01907e-07
-4.45345e-09
-1.97131e-07
-4.7764e-09
-1.92044e-07
-5.08651e-09
-1.86662e-07
-5.38225e-09
-1.81e-07
-5.66212e-09
-1.75075e-07
-5.92465e-09
-1.68907e-07
-6.16843e-09
-1.62515e-07
-6.39209e-09
-1.5592e-07
-6.59433e-09
-1.49146e-07
-6.77392e-09
-1.42217e-07
-6.92974e-09
-1.35156e-07
-7.06075e-09
-1.2799e-07
-7.16602e-09
-1.20745e-07
-7.24475e-09
-1.13449e-07
-7.29623e-09
-1.06129e-07
-7.31992e-09
-9.88136e-08
-7.31539e-09
-9.15313e-08
-7.28236e-09
-8.43106e-08
-7.2207e-09
-7.71801e-08
-7.13042e-09
-7.01684e-08
-7.01171e-09
-6.33035e-08
-6.86489e-09
-5.66131e-08
-6.69045e-09
-5.01241e-08
-6.48902e-09
-4.38627e-08
-6.2614e-09
-3.78541e-08
-6.00855e-09
-3.21226e-08
-5.73155e-09
-2.66909e-08
-5.43168e-09
-2.15805e-08
-5.11035e-09
-1.68114e-08
-4.76912e-09
-1.24017e-08
-4.40971e-09
-8.36768e-09
-4.03399e-09
-4.72369e-09
-3.64399e-09
-1.48173e-09
-3.24195e-09
1.34858e-09
-2.83028e-09
3.76025e-09
-2.41165e-09
5.74921e-09
-1.98897e-09
7.31465e-09
-1.56548e-09
8.45938e-09
-1.14479e-09
9.1904e-09
-7.31044e-10
9.51948e-09
-3.29033e-10
9.46402e-09
5.55355e-11
9.04829e-09
4.15764e-10
8.30511e-09
7.43135e-10
7.27815e-09
1.02687e-09
6.02518e-09
1.25291e-09
4.62258e-09
1.4026e-09
3.1714e-09
1.4512e-09
1.80429e-09
1.36717e-09
6.93339e-10
1.11126e-09
4.94934e-11
6.44319e-10
4.94996e-11
8.16987e-10
-1.11257e-09
2.4499e-09
-2.46923e-09
4.28218e-09
-2.86433e-09
5.83124e-09
-2.50397e-09
6.74125e-09
-1.61716e-09
6.76753e-09
-3.82617e-10
5.75249e-09
1.06871e-09
3.60357e-09
2.64253e-09
2.75812e-10
4.2719e-09
-4.24111e-09
5.90951e-09
-9.93264e-09
7.52197e-09
-1.67665e-08
9.08583e-09
-2.46979e-08
1.05849e-08
-3.36734e-08
1.20081e-08
-4.36342e-08
1.33483e-08
-5.45175e-08
1.46015e-08
-6.62591e-08
1.57655e-08
-7.8794e-08
1.68399e-08
-9.20576e-08
1.78255e-08
-1.05986e-07
1.8724e-08
-1.20517e-07
1.95377e-08
-1.35591e-07
2.02692e-08
-1.51149e-07
2.09215e-08
-1.67135e-07
2.14977e-08
-1.83495e-07
2.20009e-08
-2.00177e-07
2.24343e-08
-2.17132e-07
2.28008e-08
-2.34311e-07
2.31033e-08
-2.51671e-07
2.33443e-08
-2.69166e-07
2.35264e-08
-2.86754e-07
2.36517e-08
-3.04394e-07
2.37222e-08
-3.22047e-07
2.37395e-08
-3.39673e-07
2.37053e-08
-3.57236e-07
2.36205e-08
-3.74698e-07
2.34864e-08
-3.92024e-07
2.33036e-08
-4.09176e-07
2.30728e-08
-4.2612e-07
2.27943e-08
-4.42819e-07
2.24684e-08
-4.5924e-07
2.20953e-08
-4.75345e-07
2.16749e-08
-4.91102e-07
2.12073e-08
-5.06472e-07
2.06922e-08
-5.21423e-07
2.01296e-08
-5.35917e-07
1.95192e-08
-5.4992e-07
1.8861e-08
-5.63395e-07
1.81548e-08
-5.76308e-07
1.74006e-08
-5.88622e-07
1.65985e-08
-6.00303e-07
1.57488e-08
-6.11314e-07
1.48517e-08
-6.21623e-07
1.39078e-08
-6.31194e-07
1.29177e-08
-6.39994e-07
1.18825e-08
-6.47991e-07
1.08031e-08
-6.55153e-07
9.68091e-09
-6.6145e-07
8.5176e-09
-6.66853e-07
7.31501e-09
-6.71335e-07
6.07527e-09
-6.7487e-07
4.80081e-09
-6.77434e-07
3.49432e-09
-6.79008e-07
2.15878e-09
-6.79571e-07
7.97478e-10
-6.79107e-07
-5.86038e-10
-6.77604e-07
-1.98793e-09
-6.75051e-07
-3.40409e-09
-6.71441e-07
-4.83015e-09
-6.6677e-07
-6.26148e-09
-6.61039e-07
-7.69325e-09
-6.54251e-07
-9.12038e-09
-6.46413e-07
-1.05376e-08
-6.37537e-07
-1.19395e-08
-6.2764e-07
-1.33206e-08
-6.1674e-07
-1.4675e-08
-6.04862e-07
-1.59971e-08
-5.92034e-07
-1.72811e-08
-5.7829e-07
-1.8521e-08
-5.63665e-07
-1.97112e-08
-5.48201e-07
-2.08458e-08
-5.31944e-07
-2.19192e-08
-5.14943e-07
-2.29258e-08
-4.97251e-07
-2.38604e-08
-4.78925e-07
-2.47178e-08
-4.60027e-07
-2.54931e-08
-4.40619e-07
-2.61817e-08
-4.20769e-07
-2.67795e-08
-4.00547e-07
-2.72825e-08
-3.80026e-07
-2.76873e-08
-3.5928e-07
-2.79908e-08
-3.38386e-07
-2.81905e-08
-3.17421e-07
-2.82843e-08
-2.96466e-07
-2.82707e-08
-2.756e-07
-2.81486e-08
-2.54903e-07
-2.79177e-08
-2.34455e-07
-2.75779e-08
-2.14337e-07
-2.713e-08
-1.94626e-07
-2.65754e-08
-1.75401e-07
-2.59158e-08
-1.56736e-07
-2.51539e-08
-1.38705e-07
-2.42926e-08
-1.21378e-07
-2.33356e-08
-1.04822e-07
-2.22872e-08
-8.91015e-08
-2.11524e-08
-7.42753e-08
-1.99365e-08
-6.03988e-08
-1.86456e-08
-4.7522e-08
-1.72865e-08
-3.56895e-08
-1.58665e-08
-2.494e-08
-1.43934e-08
-1.53058e-08
-1.28762e-08
-6.81182e-09
-1.13242e-08
5.245e-10
-9.74799e-09
6.69441e-09
-8.15891e-09
1.16986e-08
-6.56974e-09
1.55486e-08
-4.99472e-09
1.82676e-08
-3.45002e-09
1.98928e-08
-1.9542e-09
2.04774e-08
-5.28978e-10
2.00932e-08
7.9988e-10
1.88349e-08
2.00136e-09
1.6824e-08
3.03755e-09
1.42154e-08
3.86154e-09
1.12034e-08
4.41496e-09
8.0284e-09
4.6265e-09
4.98162e-09
4.41384e-09
2.40077e-09
3.69116e-09
6.41698e-10
2.40202e-09
6.91566e-10
1.02822e-09
-2.14061e-09
2.86178e-09
-4.30272e-09
4.70719e-09
-4.71006e-09
5.97555e-09
-3.77262e-09
6.21851e-09
-1.86036e-09
5.11141e-09
7.24537e-10
2.43247e-09
3.74776e-09
-1.95756e-09
7.03266e-09
-8.13366e-09
1.0448e-08
-1.61215e-08
1.38973e-08
-2.59092e-08
1.73097e-08
-3.74575e-08
2.06341e-08
-5.07062e-08
2.38336e-08
-6.55809e-08
2.68827e-08
-8.19967e-08
2.9764e-08
-9.98617e-08
3.24665e-08
-1.1908e-07
3.49839e-08
-1.39554e-07
3.73138e-08
-1.61185e-07
3.94563e-08
-1.83875e-07
4.14138e-08
-2.07527e-07
4.31901e-08
-2.32048e-07
4.479e-08
-2.57346e-07
4.62191e-08
-2.83331e-07
4.74833e-08
-3.09919e-07
4.85889e-08
-3.37027e-07
4.95418e-08
-3.64574e-07
5.03483e-08
-3.92485e-07
5.1014e-08
-4.20685e-07
5.15443e-08
-4.49102e-07
5.19442e-08
-4.77669e-07
5.22184e-08
-5.06318e-07
5.23709e-08
-5.34984e-07
5.24053e-08
-5.63603e-07
5.23247e-08
-5.92114e-07
5.21318e-08
-6.20457e-07
5.18286e-08
-6.4857e-07
5.1417e-08
-6.76395e-07
5.08982e-08
-7.03874e-07
5.02733e-08
-7.30949e-07
4.95428e-08
-7.57561e-07
4.87073e-08
-7.83653e-07
4.77668e-08
-8.09167e-07
4.67214e-08
-8.34045e-07
4.55709e-08
-8.58231e-07
4.43152e-08
-8.81666e-07
4.29541e-08
-9.04292e-07
4.14875e-08
-9.26053e-07
3.99154e-08
-9.4689e-07
3.82379e-08
-9.66747e-07
3.64555e-08
-9.85567e-07
3.45687e-08
-1.00329e-06
3.25785e-08
-1.01987e-06
3.04863e-08
-1.03525e-06
2.82936e-08
-1.04937e-06
2.60027e-08
-1.06218e-06
2.36162e-08
-1.07364e-06
2.11371e-08
-1.08369e-06
1.85692e-08
-1.09229e-06
1.59167e-08
-1.0994e-06
1.31844e-08
-1.10498e-06
1.03777e-08
-1.10899e-06
7.50258e-09
-1.11139e-06
4.56564e-09
-1.11217e-06
1.57411e-09
-1.11129e-06
-1.46418e-09
-1.10874e-06
-4.54081e-09
-1.1045e-06
-7.64681e-09
-1.09855e-06
-1.07726e-08
-1.09091e-06
-1.39082e-08
-1.08156e-06
-1.70429e-08
-1.07051e-06
-2.01659e-08
-1.05778e-06
-2.32656e-08
-1.04339e-06
-2.63304e-08
-1.02736e-06
-2.93481e-08
-1.00973e-06
-3.23066e-08
-9.90537e-07
-3.51933e-08
-9.69822e-07
-3.79957e-08
-9.47642e-07
-4.07012e-08
-9.24056e-07
-4.32973e-08
-8.9913e-07
-4.57717e-08
-8.72937e-07
-4.81122e-08
-8.45556e-07
-5.03069e-08
-8.17072e-07
-5.23443e-08
-7.87576e-07
-5.42136e-08
-7.57165e-07
-5.59041e-08
-7.25941e-07
-5.74062e-08
-6.9401e-07
-5.87108e-08
-6.61483e-07
-5.98095e-08
-6.28475e-07
-6.0695e-08
-5.95105e-07
-6.13609e-08
-5.61494e-07
-6.18016e-08
-5.27766e-07
-6.20127e-08
-4.94045e-07
-6.19911e-08
-4.60459e-07
-6.17345e-08
-4.27135e-07
-6.12421e-08
-3.94199e-07
-6.05142e-08
-3.61776e-07
-5.95523e-08
-3.29992e-07
-5.83594e-08
-2.98969e-07
-5.69396e-08
-2.68824e-07
-5.52983e-08
-2.39674e-07
-5.34423e-08
-2.1163e-07
-5.13798e-08
-1.84798e-07
-4.91199e-08
-1.59276e-07
-4.66735e-08
-1.3516e-07
-4.40526e-08
-1.12535e-07
-4.12705e-08
-9.14802e-08
-3.83419e-08
-7.20637e-08
-3.52829e-08
-5.4346e-08
-3.21112e-08
-3.83763e-08
-2.88459e-08
-2.41923e-08
-2.55082e-08
-1.18193e-08
-2.21209e-08
-1.26886e-09
-1.87094e-08
7.46299e-09
-1.53016e-08
1.4397e-08
-1.19287e-08
1.95729e-08
-8.62592e-09
2.3052e-08
-5.43321e-09
2.49198e-08
-2.39681e-09
2.52902e-08
4.29359e-10
2.43099e-08
2.98169e-09
2.21628e-08
5.18453e-09
1.90769e-08
6.94746e-09
1.53289e-08
8.163e-09
1.12494e-08
8.70617e-09
7.22393e-09
8.4396e-09
3.68717e-09
7.22837e-09
1.10659e-09
4.98186e-09
1.79838e-09
9.61292e-10
-3.10191e-09
2.52026e-09
-5.86192e-09
3.79355e-09
-5.98363e-09
4.13438e-09
-4.11355e-09
3.04994e-09
-7.76008e-10
1.75769e-10
3.59875e-09
-4.74478e-09
8.66832e-09
-1.18791e-08
1.41669e-08
-2.13221e-08
1.98911e-08
-3.3111e-08
2.56863e-08
-4.72377e-08
3.14364e-08
-6.36588e-08
3.70552e-08
-8.23043e-08
4.24791e-08
-1.03084e-07
4.76627e-08
-1.25894e-07
5.25741e-08
-1.5062e-07
5.71922e-08
-1.77141e-07
6.15041e-08
-2.0533e-07
6.55034e-08
-2.35062e-07
6.91885e-08
-2.6621e-07
7.25616e-08
-2.98648e-07
7.56275e-08
-3.32251e-07
7.83932e-08
-3.66899e-07
8.08669e-08
-4.02473e-07
8.30578e-08
-4.3886e-07
8.49754e-08
-4.75947e-07
8.66295e-08
-5.13629e-07
8.80297e-08
-5.518e-07
8.91853e-08
-5.90361e-07
9.01051e-08
-6.29214e-07
9.07973e-08
-6.68265e-07
9.12694e-08
-7.07423e-07
9.15283e-08
-7.46597e-07
9.15798e-08
-7.85702e-07
9.14292e-08
-8.24651e-07
9.10809e-08
-8.63361e-07
9.05387e-08
-9.0175e-07
8.98056e-08
-9.39735e-07
8.88838e-08
-9.77237e-07
8.77753e-08
-1.01418e-06
8.64812e-08
-1.05047e-06
8.50023e-08
-1.08604e-06
8.33392e-08
-1.12081e-06
8.14921e-08
-1.1547e-06
7.94609e-08
-1.18763e-06
7.72457e-08
-1.21953e-06
7.48465e-08
-1.2503e-06
7.22632e-08
-1.27988e-06
6.94963e-08
-1.30819e-06
6.65461e-08
-1.33515e-06
6.34138e-08
-1.36068e-06
6.01005e-08
-1.38471e-06
5.66084e-08
-1.40717e-06
5.29399e-08
-1.42797e-06
4.90982e-08
-1.44705e-06
4.50874e-08
-1.46435e-06
4.09122e-08
-1.47979e-06
3.65783e-08
-1.49331e-06
3.20923e-08
-1.50486e-06
2.74617e-08
-1.51437e-06
2.26949e-08
-1.52179e-06
1.78015e-08
-1.52708e-06
1.27921e-08
-1.5302e-06
7.67825e-09
-1.53109e-06
2.47248e-09
-1.52975e-06
-2.81155e-09
-1.52613e-06
-8.15924e-09
-1.52022e-06
-1.3555e-08
-1.51201e-06
-1.89823e-08
-1.5015e-06
-2.44239e-08
-1.48868e-06
-2.98614e-08
-1.47357e-06
-3.5276e-08
-1.45618e-06
-4.0648e-08
-1.43656e-06
-4.59573e-08
-1.41472e-06
-5.11831e-08
-1.39072e-06
-5.63045e-08
-1.36462e-06
-6.13001e-08
-1.33646e-06
-6.61484e-08
-1.30634e-06
-7.0828e-08
-1.27432e-06
-7.53175e-08
-1.24049e-06
-7.95957e-08
-1.20496e-06
-8.3642e-08
-1.16783e-06
-8.7436e-08
-1.12922e-06
-9.09584e-08
-1.08924e-06
-9.41903e-08
-1.04803e-06
-9.7114e-08
-1.00573e-06
-9.97129e-08
-9.62467e-07
-1.01972e-07
-9.184e-07
-1.03876e-07
-8.73682e-07
-1.05413e-07
-8.2847e-07
-1.06573e-07
-7.82927e-07
-1.07345e-07
-7.37217e-07
-1.07723e-07
-6.91507e-07
-1.07701e-07
-6.45966e-07
-1.07275e-07
-6.00763e-07
-1.06445e-07
-5.56067e-07
-1.0521e-07
-5.12046e-07
-1.03574e-07
-4.68865e-07
-1.01541e-07
-4.26686e-07
-9.91184e-08
-3.85668e-07
-9.63164e-08
-3.45964e-07
-9.31464e-08
-3.07721e-07
-8.96222e-08
-2.71081e-07
-8.57602e-08
-2.36175e-07
-8.15789e-08
-2.03129e-07
-7.70992e-08
-1.72055e-07
-7.23442e-08
-1.43058e-07
-6.73395e-08
-1.16227e-07
-6.21131e-08
-9.16428e-08
-5.66956e-08
-6.93681e-08
-5.11206e-08
-4.94518e-08
-4.54245e-08
-3.19256e-08
-3.96472e-08
-1.68026e-08
-3.38325e-08
-4.07561e-09
-2.80286e-08
6.28492e-09
-2.22893e-08
1.43335e-08
-1.66744e-08
2.01521e-08
-1.12517e-08
2.38539e-08
-6.09857e-09
2.55869e-08
-1.30365e-09
2.55382e-08
3.0302e-09
2.39392e-08
6.78335e-09
2.10699e-08
9.81661e-09
1.72635e-08
1.19693e-08
1.29102e-08
1.30596e-08
8.45896e-09
1.2891e-08
4.41841e-09
1.12691e-08
1.36343e-09
8.0368e-09
3.16187e-09
7.21225e-10
-3.82322e-09
1.64642e-09
-6.78736e-09
1.89211e-09
-6.22951e-09
7.99873e-10
-3.02141e-09
-2.13389e-09
2.15775e-09
-7.28586e-09
8.75081e-09
-1.49256e-08
1.63081e-08
-2.52324e-08
2.44738e-08
-3.83108e-08
3.29694e-08
-5.42033e-08
4.15788e-08
-7.29028e-08
5.01359e-08
-9.43623e-08
5.85147e-08
-1.18504e-07
6.66207e-08
-1.45225e-07
7.43843e-08
-1.74407e-07
8.1756e-08
-2.05917e-07
8.87016e-08
-2.39612e-07
9.51993e-08
-2.75346e-07
1.01237e-07
-3.12967e-07
1.0681e-07
-3.52323e-07
1.11918e-07
-3.93264e-07
1.16568e-07
-4.3564e-07
1.20769e-07
-4.79302e-07
1.24529e-07
-5.24108e-07
1.27863e-07
-5.69916e-07
1.30783e-07
-6.1659e-07
1.33303e-07
-6.63996e-07
1.35436e-07
-7.12007e-07
1.37196e-07
-7.60497e-07
1.38595e-07
-8.09344e-07
1.39645e-07
-8.58431e-07
1.40356e-07
-9.07641e-07
1.40739e-07
-9.56864e-07
1.40803e-07
-1.00599e-06
1.40554e-07
-1.05491e-06
1.40001e-07
-1.10352e-06
1.39147e-07
-1.15171e-06
1.37999e-07
-1.19938e-06
1.36558e-07
-1.24644e-06
1.3483e-07
-1.29277e-06
1.32814e-07
-1.33828e-06
1.30513e-07
-1.38287e-06
1.27928e-07
-1.42644e-06
1.2506e-07
-1.46889e-06
1.21908e-07
-1.51011e-06
1.18473e-07
-1.55002e-06
1.14755e-07
-1.58851e-06
1.10756e-07
-1.62549e-06
1.06475e-07
-1.66086e-06
1.01913e-07
-1.69452e-06
9.70737e-08
-1.72638e-06
9.19583e-08
-1.75634e-06
8.65704e-08
-1.78431e-06
8.09144e-08
-1.81021e-06
7.49954e-08
-1.83394e-06
6.88201e-08
-1.85543e-06
6.23959e-08
-1.87458e-06
5.5732e-08
-1.89133e-06
4.88385e-08
-1.90559e-06
4.17274e-08
-1.91731e-06
3.44117e-08
-1.92642e-06
2.69063e-08
-1.93285e-06
1.92274e-08
-1.93657e-06
1.13928e-08
-1.93751e-06
3.42191e-09
-1.93566e-06
-4.66455e-09
-1.93098e-06
-1.28442e-08
-1.92344e-06
-2.10933e-08
-1.91303e-06
-2.93868e-08
-1.89976e-06
-3.76982e-08
-1.88362e-06
-4.59999e-08
-1.86463e-06
-5.42632e-08
-1.84282e-06
-6.24584e-08
-1.81823e-06
-7.05551e-08
-1.79089e-06
-7.85219e-08
-1.76086e-06
-8.63271e-08
-1.72823e-06
-9.39386e-08
-1.69305e-06
-1.01324e-07
-1.65543e-06
-1.08451e-07
-1.61546e-06
-1.15287e-07
-1.57325e-06
-1.21801e-07
-1.52893e-06
-1.27962e-07
-1.48263e-06
-1.33739e-07
-1.43449e-06
-1.39102e-07
-1.38465e-06
-1.44024e-07
-1.33329e-06
-1.48479e-07
-1.28056e-06
-1.5244e-07
-1.22665e-06
-1.55886e-07
-1.17173e-06
-1.58794e-07
-1.11599e-06
-1.61147e-07
-1.05964e-06
-1.62928e-07
-1.00286e-06
-1.64122e-07
-9.45863e-07
-1.6472e-07
-8.88851e-07
-1.64713e-07
-8.32032e-07
-1.64095e-07
-7.75612e-07
-1.62865e-07
-7.19799e-07
-1.61023e-07
-6.64798e-07
-1.58575e-07
-6.10811e-07
-1.55527e-07
-5.58039e-07
-1.51891e-07
-5.06674e-07
-1.47681e-07
-4.56904e-07
-1.42916e-07
-4.0891e-07
-1.37616e-07
-3.62864e-07
-1.31806e-07
-3.18929e-07
-1.25515e-07
-2.77254e-07
-1.18774e-07
-2.3798e-07
-1.11618e-07
-2.01232e-07
-1.04087e-07
-1.67122e-07
-9.62238e-08
-1.35743e-07
-8.80744e-08
-1.07173e-07
-7.96902e-08
-8.14711e-08
-7.11266e-08
-5.86739e-08
-6.24445e-08
-3.87963e-08
-5.37101e-08
-2.18285e-08
-4.49965e-08
-7.73338e-09
-3.63843e-08
3.55541e-09
-2.79631e-08
1.21369e-08
-1.98331e-08
1.81458e-08
-1.21075e-08
2.17564e-08
-4.91439e-09
2.31865e-08
1.60003e-09
2.27015e-08
7.26853e-09
2.06181e-08
1.19002e-08
1.73083e-08
1.52789e-08
1.32035e-08
1.71639e-08
8.79954e-09
1.72951e-08
4.66322e-09
1.54055e-08
1.45451e-09
1.12458e-08
4.61642e-09
3.73901e-10
-4.19731e-09
4.09601e-10
-6.82326e-09
-7.15407e-10
-5.10443e-09
-3.63177e-09
-1.05018e-10
-8.82641e-09
7.35249e-09
-1.66668e-08
1.65912e-08
-2.74179e-08
2.70593e-08
-4.12577e-08
3.83136e-08
-5.82896e-08
5.00014e-08
-7.85552e-08
6.18443e-08
-1.02044e-07
7.36248e-08
-1.28704e-07
8.51746e-08
-1.58449e-07
9.63655e-08
-1.91166e-07
1.07102e-07
-2.26723e-07
1.17313e-07
-2.64971e-07
1.2695e-07
-3.05751e-07
1.3598e-07
-3.48897e-07
1.44383e-07
-3.94237e-07
1.5215e-07
-4.41599e-07
1.5928e-07
-4.90808e-07
1.65777e-07
-5.41692e-07
1.71653e-07
-5.9408e-07
1.76918e-07
-6.47806e-07
1.81589e-07
-7.02705e-07
1.85682e-07
-7.58616e-07
1.89215e-07
-8.15385e-07
1.92205e-07
-8.72859e-07
1.9467e-07
-9.30889e-07
1.96625e-07
-9.89332e-07
1.98088e-07
-1.04805e-06
1.99072e-07
-1.1069e-06
1.9959e-07
-1.16575e-06
1.99655e-07
-1.22447e-06
1.99276e-07
-1.28294e-06
1.98463e-07
-1.34101e-06
1.97224e-07
-1.39858e-06
1.95565e-07
-1.45551e-06
1.9349e-07
-1.51169e-06
1.91005e-07
-1.56698e-06
1.88112e-07
-1.62128e-06
1.84813e-07
-1.67447e-06
1.8111e-07
-1.72641e-06
1.77004e-07
-1.777e-06
1.72497e-07
-1.82612e-06
1.67588e-07
-1.87364e-06
1.6228e-07
-1.91946e-06
1.56572e-07
-1.96345e-06
1.50467e-07
-2.0055e-06
1.43967e-07
-2.04551e-06
1.37075e-07
-2.08334e-06
1.29795e-07
-2.1189e-06
1.22133e-07
-2.15208e-06
1.14094e-07
-2.18278e-06
1.05687e-07
-2.21088e-06
9.6921e-08
-2.23629e-06
8.78078e-08
-2.25892e-06
7.83601e-08
-2.27867e-06
6.8593e-08
-2.29547e-06
5.85233e-08
-2.30923e-06
4.817e-08
-2.31987e-06
3.7554e-08
-2.32734e-06
2.66986e-08
-2.33158e-06
1.56289e-08
-2.33253e-06
4.37226e-09
-2.33015e-06
-7.04191e-09
-2.32442e-06
-1.85822e-08
-2.31529e-06
-3.02152e-08
-2.30277e-06
-4.19057e-08
-2.28686e-06
-5.36167e-08
-2.26755e-06
-6.53095e-08
-2.24487e-06
-7.69439e-08
-2.21885e-06
-8.84787e-08
-2.18953e-06
-9.98711e-08
-2.15697e-06
-1.11078e-07
-2.12125e-06
-1.22054e-07
-2.08243e-06
-1.32756e-07
-2.04062e-06
-1.43137e-07
-1.99591e-06
-1.53154e-07
-1.94844e-06
-1.62762e-07
-1.89832e-06
-1.71916e-07
-1.84571e-06
-1.80573e-07
-1.79076e-06
-1.88692e-07
-1.73363e-06
-1.96231e-07
-1.6745e-06
-2.03152e-07
-1.61356e-06
-2.09418e-07
-1.55101e-06
-2.14994e-07
-1.48705e-06
-2.19848e-07
-1.42189e-06
-2.23951e-07
-1.35576e-06
-2.27278e-07
-1.28888e-06
-2.29805e-07
-1.22149e-06
-2.31514e-07
-1.15382e-06
-2.32389e-07
-1.08612e-06
-2.32419e-07
-1.01862e-06
-2.31597e-07
-9.5156e-07
-2.29921e-07
-8.85191e-07
-2.27392e-07
-8.1975e-07
-2.24016e-07
-7.55474e-07
-2.19804e-07
-6.92593e-07
-2.14771e-07
-6.31336e-07
-2.08939e-07
-5.7192e-07
-2.02332e-07
-5.14556e-07
-1.9498e-07
-4.59445e-07
-1.86917e-07
-4.06776e-07
-1.78184e-07
-3.56725e-07
-1.68825e-07
-3.09453e-07
-1.5889e-07
-2.65108e-07
-1.48433e-07
-2.23817e-07
-1.37514e-07
-1.85691e-07
-1.262e-07
-1.5082e-07
-1.14562e-07
-1.1927e-07
-1.02676e-07
-9.1085e-08
-9.06297e-08
-6.62814e-08
-7.85138e-08
-4.48478e-08
-6.64301e-08
-2.67422e-08
-5.44899e-08
-1.1889e-08
-4.28162e-08
-1.76535e-10
-3.15454e-08
8.54602e-09
-2.083e-08
1.44722e-08
-1.08406e-08
1.78415e-08
-1.76951e-09
1.89431e-08
6.16662e-09
1.81193e-08
1.27239e-08
1.57691e-08
1.76292e-08
1.23526e-08
2.05803e-08
8.39872e-09
2.1249e-08
4.51684e-09
1.92874e-08
1.42205e-09
1.43408e-08
6.03849e-09
-3.91038e-11
-4.15823e-09
-1.06854e-09
-5.79389e-09
-3.8149e-09
-2.35795e-09
-8.85171e-09
4.9318e-09
-1.66273e-08
1.51282e-08
-2.74825e-08
2.74464e-08
-4.16636e-08
4.12404e-08
-5.93351e-08
5.59852e-08
-8.0591e-08
7.12572e-08
-1.05464e-07
8.67176e-08
-1.33937e-07
1.02098e-07
-1.65949e-07
1.17186e-07
-2.01404e-07
1.31821e-07
-2.4018e-07
1.45877e-07
-2.8213e-07
1.59263e-07
-3.27094e-07
1.71913e-07
-3.74896e-07
1.83782e-07
-4.25354e-07
1.9484e-07
-4.78278e-07
2.05074e-07
-5.33477e-07
2.14478e-07
-5.90757e-07
2.23057e-07
-6.49925e-07
2.30821e-07
-7.10791e-07
2.37784e-07
-7.73167e-07
2.43964e-07
-8.36866e-07
2.49381e-07
-9.01708e-07
2.54057e-07
-9.67516e-07
2.58013e-07
-1.03412e-06
2.6127e-07
-1.10134e-06
2.63848e-07
-1.16902e-06
2.65769e-07
-1.237e-06
2.67049e-07
-1.30511e-06
2.67706e-07
-1.37322e-06
2.67755e-07
-1.44115e-06
2.6721e-07
-1.50877e-06
2.66081e-07
-1.57592e-06
2.64378e-07
-1.64247e-06
2.62111e-07
-1.70826e-06
2.59286e-07
-1.77317e-06
2.55908e-07
-1.83704e-06
2.51982e-07
-1.89974e-06
2.47511e-07
-1.96112e-06
2.42498e-07
-2.02106e-06
2.36944e-07
-2.07942e-06
2.30852e-07
-2.13605e-06
2.24222e-07
-2.19083e-06
2.17057e-07
-2.24362e-06
2.09359e-07
-2.29428e-06
2.0113e-07
-2.34269e-06
1.92375e-07
-2.38871e-06
1.83097e-07
-2.43221e-06
1.73303e-07
-2.47308e-06
1.63001e-07
-2.51119e-06
1.52199e-07
-2.54641e-06
1.4091e-07
-2.57864e-06
1.29146e-07
-2.60775e-06
1.16923e-07
-2.63365e-06
1.04258e-07
-2.65623e-06
9.11727e-08
-2.67539e-06
7.76892e-08
-2.69106e-06
6.38334e-08
-2.70314e-06
4.96334e-08
-2.71156e-06
3.51205e-08
-2.71626e-06
2.03282e-08
-2.71718e-06
5.29326e-09
-2.71428e-06
-9.94523e-09
-2.70751e-06
-2.53454e-08
-2.69687e-06
-4.08629e-08
-2.68232e-06
-5.6451e-08
-2.66388e-06
-7.20605e-08
-2.64155e-06
-8.76404e-08
-2.61535e-06
-1.03138e-07
-2.58533e-06
-1.18497e-07
-2.55154e-06
-1.33663e-07
-2.51404e-06
-1.48578e-07
-2.47291e-06
-1.63184e-07
-2.42825e-06
-1.77421e-07
-2.38015e-06
-1.91231e-07
-2.32875e-06
-2.04554e-07
-2.27418e-06
-2.17332e-07
-2.21659e-06
-2.29507e-07
-2.15614e-06
-2.41022e-07
-2.09301e-06
-2.51821e-07
-2.02739e-06
-2.61853e-07
-1.95948e-06
-2.71065e-07
-1.88949e-06
-2.79409e-07
-1.81764e-06
-2.8684e-07
-1.74418e-06
-2.93315e-07
-1.66933e-06
-2.98798e-07
-1.59335e-06
-3.03254e-07
-1.5165e-06
-3.06653e-07
-1.43905e-06
-3.0897e-07
-1.36125e-06
-3.10186e-07
-1.28338e-06
-3.10286e-07
-1.20572e-06
-3.09261e-07
-1.12853e-06
-3.07107e-07
-1.0521e-06
-3.03827e-07
-9.76684e-07
-2.99428e-07
-9.02561e-07
-2.93927e-07
-8.29991e-07
-2.87342e-07
-7.59229e-07
-2.79701e-07
-6.90522e-07
-2.71038e-07
-6.2411e-07
-2.61392e-07
-5.60219e-07
-2.50809e-07
-4.99061e-07
-2.39341e-07
-4.40838e-07
-2.27049e-07
-3.8573e-07
-2.13997e-07
-3.33904e-07
-2.00259e-07
-2.85506e-07
-1.85913e-07
-2.40658e-07
-1.71047e-07
-1.99464e-07
-1.55756e-07
-1.61997e-07
-1.40143e-07
-1.28309e-07
-1.24318e-07
-9.84178e-08
-1.08405e-07
-7.23133e-08
-9.25347e-08
-4.99498e-08
-7.68533e-08
-3.12463e-08
-6.15197e-08
-1.60825e-08
-4.67092e-08
-4.29637e-09
-3.2616e-08
4.31856e-09
-1.94555e-08
1.00165e-08
-7.46748e-09
1.31026e-08
3.08053e-09
1.39359e-08
1.18907e-08
1.29328e-08
1.86323e-08
1.05729e-08
2.29403e-08
7.40644e-09
2.44153e-08
4.06812e-09
2.26257e-08
1.29969e-09
1.71093e-08
7.33816e-09
-4.91127e-10
-3.66708e-09
-2.70279e-09
-3.58216e-09
-7.24852e-09
2.18789e-09
-1.46253e-08
1.23086e-08
-2.52263e-08
2.57293e-08
-3.93517e-08
4.15718e-08
-5.72174e-08
5.91061e-08
-7.89648e-08
7.77326e-08
-1.0467e-07
9.69621e-08
-1.34351e-07
1.16399e-07
-1.67977e-07
1.35724e-07
-2.05477e-07
1.54686e-07
-2.46743e-07
1.73087e-07
-2.91641e-07
1.90775e-07
-3.40012e-07
2.07635e-07
-3.91683e-07
2.23584e-07
-4.46463e-07
2.38562e-07
-5.04155e-07
2.52532e-07
-5.64554e-07
2.65473e-07
-6.27452e-07
2.77376e-07
-6.92637e-07
2.88242e-07
-7.59898e-07
2.98083e-07
-8.29028e-07
3.06913e-07
-8.99818e-07
3.14754e-07
-9.72063e-07
3.21627e-07
-1.04556e-06
3.27558e-07
-1.12012e-06
3.32573e-07
-1.19555e-06
3.36696e-07
-1.27165e-06
3.39952e-07
-1.34825e-06
3.42365e-07
-1.42516e-06
3.43958e-07
-1.5022e-06
3.4475e-07
-1.57921e-06
3.4476e-07
-1.656e-06
3.44005e-07
-1.73242e-06
3.42499e-07
-1.8083e-06
3.40254e-07
-1.88347e-06
3.3728e-07
-1.95777e-06
3.33587e-07
-2.03104e-06
3.29182e-07
-2.10313e-06
3.2407e-07
-2.17387e-06
3.18255e-07
-2.24311e-06
3.11742e-07
-2.3107e-06
3.04533e-07
-2.37648e-06
2.96632e-07
-2.4403e-06
2.8804e-07
-2.50201e-06
2.78761e-07
-2.56144e-06
2.68797e-07
-2.61847e-06
2.58154e-07
-2.67293e-06
2.46837e-07
-2.72469e-06
2.34852e-07
-2.77359e-06
2.22208e-07
-2.81951e-06
2.08915e-07
-2.86229e-06
1.94987e-07
-2.90182e-06
1.80437e-07
-2.93796e-06
1.65284e-07
-2.97058e-06
1.49548e-07
-2.99958e-06
1.33253e-07
-3.02483e-06
1.16425e-07
-3.04623e-06
9.90937e-08
-3.06369e-06
8.12929e-08
-3.07712e-06
6.30588e-08
-3.08643e-06
4.44314e-08
-3.09156e-06
2.54541e-08
-3.09244e-06
6.17375e-09
-3.08902e-06
-1.33595e-08
-3.08127e-06
-3.30921e-08
-3.06917e-06
-5.29676e-08
-3.05269e-06
-7.29264e-08
-3.03185e-06
-9.29059e-08
-3.00665e-06
-1.12841e-07
-2.97712e-06
-1.32665e-07
-2.94331e-06
-1.52308e-07
-2.90527e-06
-1.71699e-07
-2.86309e-06
-1.90764e-07
-2.81684e-06
-2.09431e-07
-2.76664e-06
-2.27625e-07
-2.7126e-06
-2.45271e-07
-2.65486e-06
-2.62294e-07
-2.59357e-06
-2.7862e-07
-2.5289e-06
-2.94176e-07
-2.46103e-06
-3.08891e-07
-2.39016e-06
-3.22695e-07
-2.31649e-06
-3.3552e-07
-2.24025e-06
-3.47303e-07
-2.16168e-06
-3.57982e-07
-2.08101e-06
-3.67501e-07
-1.99852e-06
-3.75806e-07
-1.91447e-06
-3.82849e-07
-1.82914e-06
-3.88588e-07
-1.74281e-06
-3.92986e-07
-1.65577e-06
-3.96011e-07
-1.56831e-06
-3.97638e-07
-1.48075e-06
-3.97849e-07
-1.39338e-06
-3.96632e-07
-1.3065e-06
-3.93984e-07
-1.22042e-06
-3.89907e-07
-1.13544e-06
-3.84411e-07
-1.05185e-06
-3.77516e-07
-9.69943e-07
-3.69248e-07
-8.90004e-07
-3.5964e-07
-8.12306e-07
-3.48736e-07
-7.37112e-07
-3.36585e-07
-6.64674e-07
-3.23247e-07
-5.95228e-07
-3.08788e-07
-5.28994e-07
-2.93283e-07
-4.66175e-07
-2.76816e-07
-4.06955e-07
-2.59479e-07
-3.51494e-07
-2.41374e-07
-2.99931e-07
-2.2261e-07
-2.52378e-07
-2.03309e-07
-2.08921e-07
-1.836e-07
-1.69615e-07
-1.63624e-07
-1.34485e-07
-1.43535e-07
-1.03522e-07
-1.23499e-07
-7.66785e-08
-1.03696e-07
-5.38719e-08
-8.43262e-08
-3.49769e-08
-6.56042e-08
-1.9825e-08
-4.77678e-08
-8.20184e-09
-3.10786e-08
1.55607e-10
-1.5825e-08
5.56192e-09
-2.32587e-09
8.38594e-09
9.06663e-09
9.05419e-09
1.79638e-08
8.05704e-09
2.39376e-08
5.95492e-09
2.65173e-08
3.39202e-09
2.51886e-08
1.11338e-09
1.93878e-08
8.45147e-09
-9.65083e-10
-2.702e-09
-4.43425e-09
-1.12893e-10
-1.09017e-08
8.6554e-09
-2.07765e-08
2.21834e-08
-3.43853e-08
3.93381e-08
-5.19766e-08
5.91631e-08
-7.37264e-08
8.08559e-08
-9.97448e-08
1.03751e-07
-1.30082e-07
1.273e-07
-1.64737e-07
1.51053e-07
-2.03661e-07
1.74648e-07
-2.46767e-07
1.97792e-07
-2.93934e-07
2.20254e-07
-3.45014e-07
2.41855e-07
-3.99836e-07
2.62457e-07
-4.58212e-07
2.81959e-07
-5.19939e-07
3.00289e-07
-5.84805e-07
3.17398e-07
-6.5259e-07
3.33258e-07
-7.2307e-07
3.47856e-07
-7.9602e-07
3.61192e-07
-8.71211e-07
3.73274e-07
-9.48418e-07
3.8412e-07
-1.02742e-06
3.93752e-07
-1.10798e-06
4.02196e-07
-1.1899e-06
4.09478e-07
-1.27296e-06
4.1563e-07
-1.35695e-06
4.2068e-07
-1.44165e-06
4.24656e-07
-1.52687e-06
4.27587e-07
-1.61241e-06
4.29499e-07
-1.69808e-06
4.30415e-07
-1.78367e-06
4.30357e-07
-1.86901e-06
4.29345e-07
-1.95391e-06
4.27397e-07
-2.03819e-06
4.24527e-07
-2.12165e-06
4.20747e-07
-2.20413e-06
4.16069e-07
-2.28545e-06
4.10501e-07
-2.36543e-06
4.04051e-07
-2.4439e-06
3.96724e-07
-2.52069e-06
3.88526e-07
-2.59561e-06
3.7946e-07
-2.66851e-06
3.69531e-07
-2.73921e-06
3.58742e-07
-2.80755e-06
3.47098e-07
-2.87336e-06
3.34604e-07
-2.93647e-06
3.21266e-07
-2.99673e-06
3.07091e-07
-3.05396e-06
2.92089e-07
-3.10802e-06
2.76271e-07
-3.15876e-06
2.5965e-07
-3.20602e-06
2.42244e-07
-3.24965e-06
2.24072e-07
-3.28952e-06
2.05156e-07
-3.3255e-06
1.85522e-07
-3.35745e-06
1.65201e-07
-3.38525e-06
1.44225e-07
-3.40878e-06
1.22633e-07
-3.42796e-06
1.00465e-07
-3.44267e-06
7.77686e-08
-3.45283e-06
5.45922e-08
-3.45836e-06
3.09903e-08
-3.45921e-06
7.02107e-09
-3.45532e-06
-1.72534e-08
-3.44664e-06
-4.17668e-08
-3.43316e-06
-6.64493e-08
-3.41486e-06
-9.12273e-08
-3.39174e-06
-1.16024e-07
-3.36382e-06
-1.40759e-07
-3.33114e-06
-1.65349e-07
-3.29374e-06
-1.89709e-07
-3.25169e-06
-2.13752e-07
-3.20506e-06
-2.37388e-07
-3.15397e-06
-2.60526e-07
-3.09852e-06
-2.83076e-07
-3.03884e-06
-3.04946e-07
-2.97509e-06
-3.26043e-07
-2.90743e-06
-3.46278e-07
-2.83605e-06
-3.6556e-07
-2.76114e-06
-3.83803e-07
-2.68291e-06
-4.0092e-07
-2.6016e-06
-4.1683e-07
-2.51745e-06
-4.31454e-07
-2.43072e-06
-4.44717e-07
-2.34167e-06
-4.5655e-07
-2.25059e-06
-4.66888e-07
-2.15776e-06
-4.75672e-07
-2.0635e-06
-4.8285e-07
-1.96811e-06
-4.88377e-07
-1.87191e-06
-4.92213e-07
-1.77522e-06
-4.9433e-07
-1.67836e-06
-4.94703e-07
-1.58168e-06
-4.9332e-07
-1.48549e-06
-4.90174e-07
-1.39012e-06
-4.85271e-07
-1.29591e-06
-4.78623e-07
-1.20317e-06
-4.70252e-07
-1.11223e-06
-4.60192e-07
-1.02339e-06
-4.48484e-07
-9.36943e-07
-4.3518e-07
-8.53185e-07
-4.20343e-07
-7.72388e-07
-4.04044e-07
-6.94809e-07
-3.86366e-07
-6.2069e-07
-3.67402e-07
-5.50251e-07
-3.47254e-07
-4.83693e-07
-3.26037e-07
-4.21193e-07
-3.03874e-07
-3.62902e-07
-2.80901e-07
-3.08946e-07
-2.57266e-07
-2.59418e-07
-2.33128e-07
-2.14383e-07
-2.08659e-07
-1.7387e-07
-1.84048e-07
-1.37874e-07
-1.59495e-07
-1.06351e-07
-1.3522e-07
-7.92167e-08
-1.1146e-07
-5.63453e-08
-8.84755e-08
-3.75657e-08
-6.65473e-08
-2.26602e-08
-4.59841e-08
-1.13618e-08
-2.71235e-08
-3.35169e-09
-1.0336e-08
1.74283e-09
3.9721e-09
4.3519e-09
1.53545e-08
4.96855e-09
2.33209e-08
4.15397e-09
2.73317e-08
2.54819e-09
2.67943e-08
8.82224e-10
2.10537e-08
9.33364e-09
-1.45006e-09
-1.25195e-09
-6.22238e-09
4.65949e-09
-1.4692e-08
1.7125e-08
-2.71745e-08
3.46659e-08
-4.39225e-08
5.60861e-08
-6.51254e-08
8.0366e-08
-9.09118e-08
1.06642e-07
-1.21353e-07
1.34192e-07
-1.56469e-07
1.62416e-07
-1.96232e-07
1.90816e-07
-2.40572e-07
2.18988e-07
-2.89383e-07
2.46603e-07
-3.42528e-07
2.73399e-07
-3.99843e-07
2.9917e-07
-4.61143e-07
3.23758e-07
-5.26226e-07
3.47042e-07
-5.94876e-07
3.68939e-07
-6.66866e-07
3.89388e-07
-7.41963e-07
4.08355e-07
-8.19928e-07