/*--------------------------------*- C++ -*----------------------------------*\
  =========                 |
  \\      /  F ield         | OpenFOAM: The Open Source CFD Toolbox
   \\    /   O peration     | Website:  https://openfoam.org
    \\  /    A nd           | Version:  9
     \\/     M anipulation  |
\*---------------------------------------------------------------------------*/
FoamFile
{
    format      ascii;
    class       volVectorField;
    location    "0.4";
    object      U;
}
// * * * * * * * * * * * * * * * * * * * * * * * * * * * * * * * * * * * * * //

dimensions      [0 1 -1 0 0 0 0];

internalField   nonuniform List<vector> 
16384
(
(1.18791e-05 -1.45948e-05 0)
(7.90919e-05 -4.52949e-05 0)
(0.000204351 -5.78708e-05 0)
(0.00033783 -5.59243e-05 0)
(0.000448065 -4.54648e-05 0)
(0.000518418 -3.03487e-05 0)
(0.000539143 -1.2869e-05 0)
(0.000504827 5.57951e-06 0)
(0.000413055 2.41632e-05 0)
(0.000263416 4.23809e-05 0)
(5.68217e-05 5.99262e-05 0)
(-0.000204933 7.6614e-05 0)
(-0.000519469 9.23359e-05 0)
(-0.000884029 0.000107035 0)
(-0.00129562 0.000120688 0)
(-0.00175111 0.000133295 0)
(-0.00224733 0.000144872 0)
(-0.00278111 0.000155446 0)
(-0.00334932 0.000165053 0)
(-0.0039489 0.000173732 0)
(-0.00457691 0.000181527 0)
(-0.00523049 0.000188482 0)
(-0.00590691 0.000194641 0)
(-0.00660355 0.000200047 0)
(-0.00731792 0.000204743 0)
(-0.00804765 0.000208766 0)
(-0.00879046 0.000212156 0)
(-0.00954422 0.000214947 0)
(-0.0103068 0.000217168 0)
(-0.0110764 0.00021885 0)
(-0.0118509 0.000220015 0)
(-0.0126287 0.000220686 0)
(-0.0134079 0.000220881 0)
(-0.0141869 0.000220615 0)
(-0.014964 0.000219902 0)
(-0.0157377 0.000218749 0)
(-0.0165062 0.000217166 0)
(-0.0172681 0.000215155 0)
(-0.0180219 0.00021272 0)
(-0.0187659 0.000209862 0)
(-0.0194987 0.000206579 0)
(-0.0202187 0.00020287 0)
(-0.0209243 0.000198732 0)
(-0.0216142 0.00019416 0)
(-0.0222866 0.00018915 0)
(-0.02294 0.000183698 0)
(-0.0235729 0.0001778 0)
(-0.0241837 0.00017145 0)
(-0.0247708 0.000164647 0)
(-0.0253327 0.000157387 0)
(-0.0258676 0.000149669 0)
(-0.0263741 0.000141493 0)
(-0.0268506 0.000132862 0)
(-0.0272955 0.000123779 0)
(-0.0277073 0.000114249 0)
(-0.0280845 0.000104281 0)
(-0.0284256 9.38839e-05 0)
(-0.0287293 8.30721e-05 0)
(-0.0289941 7.18607e-05 0)
(-0.0292188 6.02683e-05 0)
(-0.029402 4.83163e-05 0)
(-0.0295428 3.6029e-05 0)
(-0.02964 2.34338e-05 0)
(-0.0296927 1.05611e-05 0)
(-0.0297 -2.55572e-06 0)
(-0.0296613 -1.58801e-05 0)
(-0.0295759 -2.93728e-05 0)
(-0.0294434 -4.29914e-05 0)
(-0.0292635 -5.66911e-05 0)
(-0.0290361 -7.04244e-05 0)
(-0.0287613 -8.41414e-05 0)
(-0.0284391 -9.77899e-05 0)
(-0.0280701 -0.000111316 0)
(-0.0276547 -0.000124664 0)
(-0.0271938 -0.000137777 0)
(-0.0266883 -0.000150596 0)
(-0.0261393 -0.000163064 0)
(-0.0255482 -0.00017512 0)
(-0.0249166 -0.000186705 0)
(-0.0242461 -0.000197761 0)
(-0.0235388 -0.00020823 0)
(-0.0227966 -0.000218055 0)
(-0.0220221 -0.000227181 0)
(-0.0212176 -0.000235555 0)
(-0.0203858 -0.000243127 0)
(-0.0195295 -0.000249849 0)
(-0.0186517 -0.000255677 0)
(-0.0177555 -0.000260571 0)
(-0.0168442 -0.000264494 0)
(-0.0159211 -0.000267414 0)
(-0.0149896 -0.000269304 0)
(-0.0140533 -0.000270143 0)
(-0.0131158 -0.000269912 0)
(-0.0121806 -0.000268601 0)
(-0.0112516 -0.000266204 0)
(-0.0103322 -0.000262721 0)
(-0.00942625 -0.000258157 0)
(-0.00853729 -0.000252525 0)
(-0.00766891 -0.000245841 0)
(-0.00682461 -0.00023813 0)
(-0.00600779 -0.00022942 0)
(-0.00522176 -0.000219746 0)
(-0.00446967 -0.000209149 0)
(-0.00375455 -0.000197676 0)
(-0.00307922 -0.000185377 0)
(-0.00244635 -0.00017231 0)
(-0.00185838 -0.000158538 0)
(-0.00131753 -0.000144128 0)
(-0.000825741 -0.000129152 0)
(-0.000384719 -0.000113691 0)
(4.14899e-06 -9.78316e-05 0)
(0.000339791 -8.16688e-05 0)
(0.000621489 -6.53063e-05 0)
(0.000848919 -4.88591e-05 0)
(0.0010222 -3.24561e-05 0)
(0.00114193 -1.62463e-05 0)
(0.0012093 -4.05609e-07 0)
(0.00122615 1.48516e-05 0)
(0.00119509 2.92567e-05 0)
(0.00111974 4.24635e-05 0)
(0.00100491 5.40092e-05 0)
(0.000857001 6.32482e-05 0)
(0.000684495 6.92512e-05 0)
(0.000498638 7.06836e-05 0)
(0.000314197 6.56909e-05 0)
(0.000150607 5.17567e-05 0)
(3.48066e-05 2.64912e-05 0)
(-3.58934e-06 -3.56513e-06 0)
(4.3739e-05 -8.32438e-05 0)
(0.000196531 -0.00019933 0)
(0.000431418 -0.000239399 0)
(0.00066206 -0.000219086 0)
(0.000828715 -0.000158477 0)
(0.000894626 -7.24949e-05 0)
(0.00083516 2.85501e-05 0)
(0.000634813 0.000137571 0)
(0.000285199 0.00024976 0)
(-0.000216882 0.000361856 0)
(-0.000870907 0.000471635 0)
(-0.00167369 0.000577589 0)
(-0.00262015 0.000678707 0)
(-0.00370392 0.000774334 0)
(-0.00491772 0.000864071 0)
(-0.0062537 0.000947704 0)
(-0.00770371 0.00102516 0)
(-0.00925942 0.00109646 0)
(-0.0109125 0.00116171 0)
(-0.0126548 0.00122105 0)
(-0.0144781 0.00127467 0)
(-0.0163747 0.00132279 0)
(-0.0183369 0.00136563 0)
(-0.0203575 0.00140341 0)
(-0.0224293 0.00143636 0)
(-0.0245455 0.0014647 0)
(-0.0266998 0.00148866 0)
(-0.0288859 0.00150841 0)
(-0.0310979 0.00152416 0)
(-0.0333299 0.00153607 0)
(-0.0355765 0.00154428 0)
(-0.0378324 0.00154894 0)
(-0.0400924 0.00155017 0)
(-0.0423515 0.00154805 0)
(-0.0446048 0.00154267 0)
(-0.0468476 0.0015341 0)
(-0.0490752 0.0015224 0)
(-0.0512829 0.00150758 0)
(-0.0534661 0.00148969 0)
(-0.0556204 0.00146874 0)
(-0.0577412 0.00144472 0)
(-0.0598241 0.00141764 0)
(-0.0618643 0.0013875 0)
(-0.0638576 0.00135426 0)
(-0.0657993 0.00131793 0)
(-0.0676849 0.00127849 0)
(-0.0695098 0.00123591 0)
(-0.0712695 0.0011902 0)
(-0.0729595 0.00114133 0)
(-0.0745751 0.00108932 0)
(-0.0761119 0.00103417 0)
(-0.0775653 0.000975896 0)
(-0.0789309 0.000914527 0)
(-0.0802042 0.000850103 0)
(-0.081381 0.000782679 0)
(-0.0824571 0.000712322 0)
(-0.0834282 0.000639118 0)
(-0.0842905 0.000563168 0)
(-0.0850402 0.00048459 0)
(-0.0856737 0.000403523 0)
(-0.0861875 0.000320121 0)
(-0.0865786 0.000234561 0)
(-0.086844 0.000147035 0)
(-0.0869813 5.77591e-05 0)
(-0.0869881 -3.30354e-05 0)
(-0.0868626 -0.000125096 0)
(-0.0866033 -0.000218152 0)
(-0.086209 -0.000311916 0)
(-0.0856791 -0.000406082 0)
(-0.0850133 -0.000500328 0)
(-0.0842118 -0.00059432 0)
(-0.0832755 -0.000687708 0)
(-0.0822054 -0.000780131 0)
(-0.0810033 -0.000871218 0)
(-0.0796716 -0.000960591 0)
(-0.078213 -0.00104786 0)
(-0.0766309 -0.00113265 0)
(-0.0749291 -0.00121456 0)
(-0.0731123 -0.0012932 0)
(-0.0711852 -0.00136819 0)
(-0.0691536 -0.00143915 0)
(-0.0670235 -0.0015057 0)
(-0.0648014 -0.0015675 0)
(-0.0624944 -0.00162419 0)
(-0.06011 -0.00167546 0)
(-0.0576563 -0.00172098 0)
(-0.0551417 -0.00176048 0)
(-0.0525749 -0.00179369 0)
(-0.049965 -0.00182039 0)
(-0.0473215 -0.00184036 0)
(-0.0446541 -0.00185344 0)
(-0.0419726 -0.00185948 0)
(-0.0392873 -0.00185837 0)
(-0.0366082 -0.00185005 0)
(-0.0339456 -0.00183449 0)
(-0.0313098 -0.00181169 0)
(-0.0287111 -0.0017817 0)
(-0.0261596 -0.00174459 0)
(-0.0236653 -0.00170049 0)
(-0.021238 -0.00164957 0)
(-0.0188872 -0.00159203 0)
(-0.0166221 -0.00152811 0)
(-0.0144516 -0.00145809 0)
(-0.0123839 -0.00138229 0)
(-0.0104271 -0.00130107 0)
(-0.00858851 -0.00121483 0)
(-0.00687481 -0.001124 0)
(-0.00529211 -0.00102906 0)
(-0.00384575 -0.000930545 0)
(-0.0025403 -0.000829009 0)
(-0.00137944 -0.000725076 0)
(-0.000365899 -0.000619425 0)
(0.000498613 -0.000512803 0)
(0.00121355 -0.00040604 0)
(0.00177966 -0.000300067 0)
(0.00219911 -0.000195944 0)
(0.00247571 -9.49027e-05 0)
(0.00261517 1.60299e-06 0)
(0.00262539 9.18201e-05 0)
(0.0025169 0.000173598 0)
(0.0023034 0.000244241 0)
(0.00200238 0.000300301 0)
(0.00163604 0.000337306 0)
(0.0012321 0.000349532 0)
(0.000824235 0.000330004 0)
(0.000452069 0.000270887 0)
(0.000166404 0.000166715 0)
(2.62764e-05 3.47319e-05 0)
(5.74903e-05 -0.000206708 0)
(0.000238891 -0.000433843 0)
(0.00049187 -0.000492089 0)
(0.000709476 -0.000419383 0)
(0.000818482 -0.000253274 0)
(0.000771504 -2.40581e-05 0)
(0.000534771 0.000245344 0)
(8.56897e-05 0.000538049 0)
(-0.000588979 0.000841816 0)
(-0.00149525 0.00114784 0)
(-0.00263369 0.0014498 0)
(-0.00400074 0.00174322 0)
(-0.00558986 0.00202495 0)
(-0.00739226 0.00229283 0)
(-0.00939763 0.00254543 0)
(-0.0115945 0.0027819 0)
(-0.0139709 0.00300178 0)
(-0.0165144 0.00320495 0)
(-0.0192121 0.00339149 0)
(-0.0220517 0.00356169 0)
(-0.0250207 0.00371593 0)
(-0.0281067 0.0038547 0)
(-0.0312979 0.00397852 0)
(-0.0345828 0.00408796 0)
(-0.0379502 0.00418359 0)
(-0.0413893 0.00426597 0)
(-0.0448897 0.00433567 0)
(-0.0484414 0.00439319 0)
(-0.0520348 0.00443904 0)
(-0.0556606 0.00447367 0)
(-0.0593097 0.00449747 0)
(-0.0629736 0.00451083 0)
(-0.0666438 0.00451406 0)
(-0.0703121 0.00450743 0)
(-0.0739704 0.00449117 0)
(-0.0776109 0.00446548 0)
(-0.081226 0.0044305 0)
(-0.0848079 0.00438635 0)
(-0.0883493 0.00433311 0)
(-0.0918425 0.00427083 0)
(-0.0952803 0.00419953 0)
(-0.0986552 0.00411923 0)
(-0.10196 0.00402992 0)
(-0.105187 0.00393158 0)
(-0.108329 0.00382418 0)
(-0.111378 0.0037077 0)
(-0.114328 0.00358213 0)
(-0.117171 0.00344745 0)
(-0.119899 0.00330366 0)
(-0.122505 0.00315078 0)
(-0.124982 0.00298887 0)
(-0.127323 0.00281798 0)
(-0.12952 0.00263823 0)
(-0.131567 0.00244975 0)
(-0.133456 0.00225272 0)
(-0.135182 0.00204735 0)
(-0.136736 0.0018339 0)
(-0.138114 0.00161269 0)
(-0.13931 0.00138407 0)
(-0.140316 0.00114846 0)
(-0.14113 0.000906309 0)
(-0.141744 0.000658138 0)
(-0.142156 0.000404514 0)
(-0.14236 0.00014606 0)
(-0.142354 -0.000116549 0)
(-0.142135 -0.000382585 0)
(-0.141701 -0.000651268 0)
(-0.141049 -0.000921771 0)
(-0.14018 -0.00119322 0)
(-0.139092 -0.0014647 0)
(-0.137786 -0.00173524 0)
(-0.136264 -0.00200387 0)
(-0.134528 -0.00226954 0)
(-0.13258 -0.00253121 0)
(-0.130425 -0.00278781 0)
(-0.128066 -0.00303824 0)
(-0.12551 -0.00328142 0)
(-0.122763 -0.00351624 0)
(-0.119832 -0.0037416 0)
(-0.116725 -0.00395642 0)
(-0.113451 -0.00415963 0)
(-0.11002 -0.0043502 0)
(-0.106442 -0.00452712 0)
(-0.102728 -0.00468942 0)
(-0.098891 -0.00483619 0)
(-0.094943 -0.00496657 0)
(-0.0908976 -0.00507975 0)
(-0.0867686 -0.00517502 0)
(-0.0825707 -0.00525171 0)
(-0.0783187 -0.00530927 0)
(-0.0740281 -0.0053472 0)
(-0.0697144 -0.00536512 0)
(-0.0653937 -0.00536275 0)
(-0.0610821 -0.00533988 0)
(-0.0567958 -0.00529645 0)
(-0.0525511 -0.00523247 0)
(-0.0483642 -0.00514807 0)
(-0.0442511 -0.00504351 0)
(-0.0402276 -0.00491913 0)
(-0.0363091 -0.00477543 0)
(-0.0325107 -0.00461297 0)
(-0.0288468 -0.00443246 0)
(-0.0253314 -0.0042347 0)
(-0.0219777 -0.00402063 0)
(-0.0187981 -0.00379129 0)
(-0.0158041 -0.00354782 0)
(-0.0130062 -0.0032915 0)
(-0.010414 -0.00302372 0)
(-0.00803564 -0.00274601 0)
(-0.00587827 -0.00246001 0)
(-0.00394743 -0.00216755 0)
(-0.00224721 -0.00187061 0)
(-0.000779996 -0.00157137 0)
(0.000453681 -0.00127226 0)
(0.00145534 -0.000975982 0)
(0.00222877 -0.000685611 0)
(0.00278037 -0.000404662 0)
(0.00311943 -0.000137225 0)
(0.00325859 0.000111872 0)
(0.00321436 0.000336859 0)
(0.00300776 0.000530762 0)
(0.00266495 0.000685082 0)
(0.00221811 0.000789466 0)
(0.00170612 0.000831591 0)
(0.00117426 0.000797642 0)
(0.000673541 0.000673884 0)
(0.000270196 0.000452041 0)
(5.13532e-05 0.000150096 0)
(5.6324e-05 -0.000340116 0)
(0.000220612 -0.000665136 0)
(0.000421943 -0.000710115 0)
(0.000545251 -0.000542587 0)
(0.000511391 -0.000219662 0)
(0.000267636 0.000211863 0)
(-0.000224613 0.000715157 0)
(-0.000992017 0.00126203 0)
(-0.00205091 0.00183122 0)
(-0.00340932 0.00240685 0)
(-0.00506875 0.00297718 0)
(-0.00702561 0.00353357 0)
(-0.00927241 0.0040698 0)
(-0.0117987 0.00458144 0)
(-0.014592 0.00506548 0)
(-0.017638 0.00551996 0)
(-0.0209216 0.00594372 0)
(-0.0244271 0.00633627 0)
(-0.0281381 0.00669755 0)
(-0.0320384 0.00702788 0)
(-0.0361119 0.00732784 0)
(-0.0403424 0.00759818 0)
(-0.0447142 0.00783979 0)
(-0.0492122 0.00805364 0)
(-0.0538212 0.00824071 0)
(-0.0585271 0.00840203 0)
(-0.0633157 0.00853856 0)
(-0.0681735 0.00865127 0)
(-0.0730875 0.00874104 0)
(-0.078045 0.00880871 0)
(-0.0830339 0.00885502 0)
(-0.0880421 0.00888067 0)
(-0.0930582 0.00888625 0)
(-0.0980708 0.00887228 0)
(-0.103069 0.0088392 0)
(-0.108042 0.00878737 0)
(-0.112979 0.00871709 0)
(-0.117869 0.00862859 0)
(-0.122703 0.00852203 0)
(-0.12747 0.00839754 0)
(-0.132159 0.00825517 0)
(-0.136761 0.00809497 0)
(-0.141266 0.00791695 0)
(-0.145663 0.0077211 0)
(-0.149942 0.00750739 0)
(-0.154093 0.00727582 0)
(-0.158106 0.00702636 0)
(-0.161971 0.00675904 0)
(-0.165679 0.00647389 0)
(-0.169218 0.00617097 0)
(-0.17258 0.00585042 0)
(-0.175754 0.0055124 0)
(-0.178732 0.00515715 0)
(-0.181502 0.00478495 0)
(-0.184058 0.00439619 0)
(-0.186388 0.00399131 0)
(-0.188485 0.00357086 0)
(-0.190341 0.00313546 0)
(-0.191947 0.00268583 0)
(-0.193296 0.0022228 0)
(-0.194382 0.00174727 0)
(-0.195197 0.00126028 0)
(-0.195736 0.000762933 0)
(-0.195994 0.000256466 0)
(-0.195966 -0.000257799 0)
(-0.195649 -0.000778441 0)
(-0.19504 -0.00130394 0)
(-0.194136 -0.00183268 0)
(-0.192938 -0.00236297 0)
(-0.191444 -0.00289302 0)
(-0.189656 -0.00342098 0)
(-0.187576 -0.00394492 0)
(-0.185206 -0.00446287 0)
(-0.182552 -0.0049728 0)
(-0.179617 -0.00547264 0)
(-0.176408 -0.00596029 0)
(-0.172933 -0.00643365 0)
(-0.169201 -0.0068906 0)
(-0.165221 -0.00732903 0)
(-0.161004 -0.00774687 0)
(-0.156562 -0.00814208 0)
(-0.151908 -0.00851266 0)
(-0.147057 -0.00885669 0)
(-0.142023 -0.00917232 0)
(-0.136823 -0.0094578 0)
(-0.131473 -0.00971148 0)
(-0.125992 -0.00993186 0)
(-0.120399 -0.0101175 0)
(-0.114712 -0.0102672 0)
(-0.108951 -0.0103799 0)
(-0.103137 -0.0104547 0)
(-0.0972919 -0.0104908 0)
(-0.0914356 -0.0104876 0)
(-0.0855902 -0.0104449 0)
(-0.0797772 -0.0103624 0)
(-0.0740184 -0.0102403 0)
(-0.0683352 -0.0100788 0)
(-0.062749 -0.00987839 0)
(-0.0572809 -0.00963976 0)
(-0.0519513 -0.00936385 0)
(-0.0467803 -0.0090518 0)
(-0.0417871 -0.00870497 0)
(-0.0369903 -0.00832496 0)
(-0.0324073 -0.00791357 0)
(-0.0280546 -0.00747282 0)
(-0.0239474 -0.00700499 0)
(-0.0200998 -0.00651255 0)
(-0.0165241 -0.00599825 0)
(-0.0132313 -0.00546507 0)
(-0.0102305 -0.00491626 0)
(-0.00752902 -0.00435538 0)
(-0.00513198 -0.00378633 0)
(-0.00304233 -0.00321339 0)
(-0.00126051 -0.00264128 0)
(0.000215757 -0.00207527 0)
(0.00139178 -0.00152128 0)
(0.00227619 -0.00098604 0)
(0.00288138 -0.00047726 0)
(0.00322391 -3.89702e-06 0)
(0.0033251 0.000423569 0)
(0.00321159 0.000792794 0)
(0.00291592 0.00108922 0)
(0.00247727 0.00129578 0)
(0.001942 0.00139295 0)
(0.001363 0.00135955 0)
(0.000799228 0.00117495 0)
(0.000329657 0.000824239 0)
(6.52009e-05 0.000313049 0)
(4.64563e-05 -0.000451801 0)
(0.000161544 -0.000833682 0)
(0.000257573 -0.000820063 0)
(0.000223324 -0.000508866 0)
(-2.02347e-05 2.25474e-05 0)
(-0.000527649 0.000710825 0)
(-0.00133927 0.00150518 0)
(-0.0024834 0.00236578 0)
(-0.00397776 0.0032618 0)
(-0.00583137 0.0041696 0)
(-0.00804615 0.0050712 0)
(-0.0106183 0.00595312 0)
(-0.0135397 0.00680537 0)
(-0.0167984 0.00762068 0)
(-0.0203803 0.00839394 0)
(-0.0242689 0.00912169 0)
(-0.0284466 0.00980177 0)
(-0.0328948 0.0104331 0)
(-0.0375943 0.0110152 0)
(-0.0425257 0.0115484 0)
(-0.0476695 0.0120333 0)
(-0.0530065 0.012471 0)
(-0.0585176 0.0128627 0)
(-0.0641841 0.0132098 0)
(-0.0699878 0.0135136 0)
(-0.0759109 0.0137758 0)
(-0.0819362 0.0139978 0)
(-0.088047 0.0141809 0)
(-0.094227 0.0143266 0)
(-0.10046 0.0144362 0)
(-0.106732 0.0145108 0)
(-0.113026 0.0145514 0)
(-0.11933 0.014559 0)
(-0.125628 0.0145344 0)
(-0.131906 0.0144784 0)
(-0.138151 0.0143914 0)
(-0.14435 0.014274 0)
(-0.150488 0.0141265 0)
(-0.156554 0.0139493 0)
(-0.162534 0.0137425 0)
(-0.168415 0.0135063 0)
(-0.174185 0.0132407 0)
(-0.17983 0.0129458 0)
(-0.185338 0.0126217 0)
(-0.190697 0.0122683 0)
(-0.195892 0.0118856 0)
(-0.200913 0.0114738 0)
(-0.205746 0.0110327 0)
(-0.21038 0.0105626 0)
(-0.2148 0.0100636 0)
(-0.218997 0.00953594 0)
(-0.222956 0.00897995 0)
(-0.226667 0.00839604 0)
(-0.230117 0.00778475 0)
(-0.233296 0.00714671 0)
(-0.236193 0.00648271 0)
(-0.238796 0.00579365 0)
(-0.241096 0.0050806 0)
(-0.243083 0.00434475 0)
(-0.244748 0.00358747 0)
(-0.246083 0.00281026 0)
(-0.247079 0.00201482 0)
(-0.24773 0.00120299 0)
(-0.24803 0.000376749 0)
(-0.247973 -0.000461724 0)
(-0.247556 -0.00131012 0)
(-0.246774 -0.00216596 0)
(-0.245626 -0.00302664 0)
(-0.24411 -0.0038894 0)
(-0.242227 -0.00475138 0)
(-0.239979 -0.00560957 0)
(-0.237367 -0.00646089 0)
(-0.234395 -0.00730213 0)
(-0.23107 -0.00813003 0)
(-0.227397 -0.00894128 0)
(-0.223384 -0.00973251 0)
(-0.219041 -0.0105003 0)
(-0.214379 -0.0112414 0)
(-0.20941 -0.0119523 0)
(-0.204147 -0.0126297 0)
(-0.198605 -0.0132703 0)
(-0.192801 -0.013871 0)
(-0.186752 -0.0144287 0)
(-0.180476 -0.0149405 0)
(-0.173994 -0.0154035 0)
(-0.167327 -0.0158151 0)
(-0.160496 -0.016173 0)
(-0.153525 -0.0164748 0)
(-0.146437 -0.0167186 0)
(-0.139257 -0.0169028 0)
(-0.13201 -0.0170258 0)
(-0.124722 -0.0170865 0)
(-0.117419 -0.017084 0)
(-0.110127 -0.0170178 0)
(-0.102873 -0.0168876 0)
(-0.0956837 -0.0166936 0)
(-0.0885851 -0.0164362 0)
(-0.0816035 -0.0161162 0)
(-0.0747647 -0.0157348 0)
(-0.0680938 -0.0152934 0)
(-0.0616153 -0.0147939 0)
(-0.0553529 -0.0142385 0)
(-0.049329 -0.0136299 0)
(-0.0435652 -0.0129709 0)
(-0.0380815 -0.0122648 0)
(-0.0328966 -0.0115154 0)
(-0.0280274 -0.0107267 0)
(-0.0234892 -0.00990301 0)
(-0.0192951 -0.00904935 0)
(-0.0154562 -0.00817098 0)
(-0.0119813 -0.00727367 0)
(-0.00887654 -0.00636376 0)
(-0.00614527 -0.00544816 0)
(-0.00378789 -0.00453453 0)
(-0.0018015 -0.0036313 0)
(-0.000179548 -0.00274793 0)
(0.00108845 -0.00189504 0)
(0.00201734 -0.00108467 0)
(0.00262678 -0.000330584 0)
(0.00294173 0.000351382 0)
(0.00299299 0.000942956 0)
(0.00281767 0.00142308 0)
(0.00245978 0.0017677 0)
(0.00197076 0.00194987 0)
(0.00140896 0.00194051 0)
(0.000839534 0.00171044 0)
(0.00035111 0.00123418 0)
(7.03483e-05 0.000497244 0)
(3.17494e-05 -0.00052442 0)
(7.60687e-05 -0.000901666 0)
(2.72403e-05 -0.000772879 0)
(-0.000212916 -0.000262976 0)
(-0.000718363 0.000531332 0)
(-0.00154267 0.00153073 0)
(-0.00272555 0.00267092 0)
(-0.00429494 0.00390061 0)
(-0.00626847 0.00517934 0)
(-0.00865506 0.00647544 0)
(-0.0114564 0.00776438 0)
(-0.0146681 0.00902736 0)
(-0.0182812 0.0102502 0)
(-0.0222827 0.0114224 0)
(-0.0266568 0.0125363 0)
(-0.0313852 0.0135866 0)
(-0.0364482 0.0145699 0)
(-0.0418248 0.0154843 0)
(-0.0474934 0.0163288 0)
(-0.0534319 0.0171034 0)
(-0.0596179 0.017809 0)
(-0.0660293 0.0184465 0)
(-0.0726441 0.0190176 0)
(-0.0794407 0.0195241 0)
(-0.0863978 0.0199678 0)
(-0.0934948 0.0203507 0)
(-0.100711 0.0206749 0)
(-0.108027 0.0209423 0)
(-0.115424 0.0211547 0)
(-0.122883 0.0213138 0)
(-0.130386 0.0214214 0)
(-0.137914 0.0214789 0)
(-0.145452 0.0214875 0)
(-0.152981 0.0214485 0)
(-0.160485 0.0213629 0)
(-0.167947 0.0212314 0)
(-0.175352 0.0210547 0)
(-0.182684 0.0208335 0)
(-0.189927 0.0205682 0)
(-0.197065 0.020259 0)
(-0.204083 0.0199062 0)
(-0.210966 0.01951 0)
(-0.217698 0.0190705 0)
(-0.224263 0.0185877 0)
(-0.230648 0.0180618 0)
(-0.236837 0.0174927 0)
(-0.242815 0.0168806 0)
(-0.248566 0.0162257 0)
(-0.254077 0.0155281 0)
(-0.259332 0.0147881 0)
(-0.264317 0.0140062 0)
(-0.269018 0.0131829 0)
(-0.273421 0.0123188 0)
(-0.277512 0.0114148 0)
(-0.281278 0.0104719 0)
(-0.284706 0.00949131 0)
(-0.287783 0.00847435 0)
(-0.290499 0.00742265 0)
(-0.292841 0.006338 0)
(-0.294798 0.00522244 0)
(-0.296363 0.00407822 0)
(-0.297524 0.00290783 0)
(-0.298275 0.00171397 0)
(-0.298609 0.000499612 0)
(-0.298519 -0.000732087 0)
(-0.298 -0.00197773 0)
(-0.29705 -0.0032337 0)
(-0.295665 -0.00449618 0)
(-0.293845 -0.00576116 0)
(-0.29159 -0.00702445 0)
(-0.288901 -0.0082817 0)
(-0.285783 -0.00952841 0)
(-0.28224 -0.0107599 0)
(-0.278278 -0.0119716 0)
(-0.273906 -0.0131585 0)
(-0.269132 -0.0143158 0)
(-0.263969 -0.0154387 0)
(-0.258428 -0.0165222 0)
(-0.252525 -0.0175614 0)
(-0.246275 -0.0185517 0)
(-0.239696 -0.0194881 0)
(-0.232806 -0.0203663 0)
(-0.225627 -0.0211816 0)
(-0.218181 -0.02193 0)
(-0.210491 -0.0226073 0)
(-0.202581 -0.0232099 0)
(-0.194477 -0.0237341 0)
(-0.186207 -0.0241769 0)
(-0.177797 -0.0245354 0)
(-0.169277 -0.0248071 0)
(-0.160677 -0.0249899 0)
(-0.152025 -0.0250823 0)
(-0.143354 -0.0250829 0)
(-0.134693 -0.0249909 0)
(-0.126073 -0.0248062 0)
(-0.117526 -0.0245287 0)
(-0.109083 -0.0241593 0)
(-0.100774 -0.0236991 0)
(-0.0926282 -0.0231498 0)
(-0.0846763 -0.0225135 0)
(-0.0769463 -0.021793 0)
(-0.0694659 -0.0209916 0)
(-0.0622613 -0.0201129 0)
(-0.0553575 -0.0191613 0)
(-0.048778 -0.0181417 0)
(-0.0425444 -0.0170593 0)
(-0.0366766 -0.0159201 0)
(-0.0311921 -0.0147307 0)
(-0.0261062 -0.0134982 0)
(-0.0214319 -0.0122302 0)
(-0.0171792 -0.0109352 0)
(-0.0133552 -0.0096225 0)
(-0.00996379 -0.0083021 0)
(-0.00700545 -0.00698508 0)
(-0.00447681 -0.00568359 0)
(-0.0023704 -0.00441115 0)
(-0.000674364 -0.0031828 0)
(0.000628012 -0.00201543 0)
(0.00155866 -0.000928104 0)
(0.00214517 5.76013e-05 0)
(0.00242127 0.000917163 0)
(0.00242725 0.00162279 0)
(0.00221047 0.00214322 0)
(0.0018259 0.00244377 0)
(0.00133574 0.0024869 0)
(0.000809875 0.00223342 0)
(0.000343099 0.00164481 0)
(6.94535e-05 0.000684272 0)
(1.44209e-05 -0.000547482 0)
(-2.61049e-05 -0.00084257 0)
(-0.00024792 -0.000531749 0)
(-0.000729996 0.00023795 0)
(-0.00153743 0.00135255 0)
(-0.0027205 0.00271806 0)
(-0.00431633 0.0042575 0)
(-0.00635084 0.00590871 0)
(-0.00884022 0.00762188 0)
(-0.0117923 0.0093574 0)
(-0.0152077 0.0110841 0)
(-0.0190812 0.0127777 0)
(-0.0234026 0.0144197 0)
(-0.0281577 0.0159958 0)
(-0.0333291 0.0174959 0)
(-0.038897 0.0189126 0)
(-0.0448397 0.0202408 0)
(-0.0511343 0.0214776 0)
(-0.0577568 0.0226215 0)
(-0.0646828 0.0236721 0)
(-0.0718876 0.02463 0)
(-0.0793464 0.0254964 0)
(-0.0870347 0.0262732 0)
(-0.0949281 0.0269625 0)
(-0.103003 0.0275667 0)
(-0.111235 0.0280882 0)
(-0.119602 0.0285295 0)
(-0.128082 0.0288931 0)
(-0.136652 0.0291814 0)
(-0.145291 0.0293966 0)
(-0.153978 0.0295409 0)
(-0.162693 0.0296161 0)
(-0.171416 0.029624 0)
(-0.180127 0.0295661 0)
(-0.188807 0.0294438 0)
(-0.197437 0.029258 0)
(-0.205999 0.0290099 0)
(-0.214473 0.0287001 0)
(-0.222842 0.0283292 0)
(-0.231088 0.0278977 0)
(-0.239193 0.0274059 0)
(-0.247139 0.0268542 0)
(-0.254908 0.0262427 0)
(-0.262484 0.0255716 0)
(-0.269847 0.0248409 0)
(-0.276982 0.024051 0)
(-0.28387 0.023202 0)
(-0.290495 0.0222941 0)
(-0.29684 0.0213277 0)
(-0.302887 0.0203033 0)
(-0.308621 0.0192215 0)
(-0.314025 0.0180832 0)
(-0.319084 0.0168894 0)
(-0.32378 0.0156412 0)
(-0.328101 0.01434 0)
(-0.33203 0.0129877 0)
(-0.335554 0.0115861 0)
(-0.33866 0.0101374 0)
(-0.341334 0.00864422 0)
(-0.343566 0.00710935 0)
(-0.345344 0.00553591 0)
(-0.346658 0.00392734 0)
(-0.3475 0.00228737 0)
(-0.347861 0.000620064 0)
(-0.347736 -0.00107024 0)
(-0.347118 -0.00277888 0)
(-0.346005 -0.00450093 0)
(-0.344392 -0.00623119 0)
(-0.342281 -0.00796418 0)
(-0.339671 -0.0096942 0)
(-0.336564 -0.0114153 0)
(-0.332965 -0.0131215 0)
(-0.328879 -0.0148064 0)
(-0.324314 -0.0164636 0)
(-0.319279 -0.0180866 0)
(-0.313785 -0.0196688 0)
(-0.307845 -0.0212037 0)
(-0.301473 -0.0226845 0)
(-0.294687 -0.0241048 0)
(-0.287503 -0.025458 0)
(-0.279944 -0.0267377 0)
(-0.272029 -0.0279379 0)
(-0.263782 -0.0290526 0)
(-0.25523 -0.0300759 0)
(-0.246397 -0.0310026 0)
(-0.237312 -0.0318275 0)
(-0.228004 -0.0325459 0)
(-0.218504 -0.0331536 0)
(-0.208844 -0.0336467 0)
(-0.199054 -0.0340219 0)
(-0.18917 -0.0342765 0)
(-0.179226 -0.0344082 0)
(-0.169254 -0.0344154 0)
(-0.159292 -0.034297 0)
(-0.149372 -0.0340527 0)
(-0.139532 -0.0336826 0)
(-0.129805 -0.0331878 0)
(-0.120226 -0.0325697 0)
(-0.11083 -0.0318309 0)
(-0.101648 -0.0309741 0)
(-0.0927147 -0.0300032 0)
(-0.0840597 -0.0289225 0)
(-0.0757133 -0.0277373 0)
(-0.0677035 -0.0264532 0)
(-0.0600571 -0.0250771 0)
(-0.0527983 -0.023616 0)
(-0.0459496 -0.0220783 0)
(-0.0395309 -0.0204727 0)
(-0.0335596 -0.0188089 0)
(-0.0280501 -0.0170975 0)
(-0.0230137 -0.0153499 0)
(-0.0184587 -0.0135787 0)
(-0.0143895 -0.0117975 0)
(-0.0108066 -0.0100212 0)
(-0.00770669 -0.00826612 0)
(-0.0050816 -0.00655018 0)
(-0.00291857 -0.00489331 0)
(-0.00119963 -0.0033176 0)
(9.87134e-05 -0.00184771 0)
(0.00100584 -0.000511269 0)
(0.00155745 0.000660783 0)
(0.00179593 0.00163379 0)
(0.00177081 0.00236914 0)
(0.0015394 0.00282413 0)
(0.00116653 0.00295226 0)
(0.000725248 0.00270363 0)
(0.000313086 0.00202579 0)
(6.44709e-05 0.000860674 0)
(-4.23841e-06 -0.000514562 0)
(-0.000138523 -0.000638148 0)
(-0.000552709 -6.97407e-05 0)
(-0.00130284 0.00102648 0)
(-0.00244246 0.00252193 0)
(-0.00401669 0.00430968 0)
(-0.00605847 0.0063013 0)
(-0.00859029 0.00842457 0)
(-0.0116258 0.0106209 0)
(-0.0151707 0.0128431 0)
(-0.019224 0.0150535 0)
(-0.023779 0.0172224 0)
(-0.0288239 0.0193268 0)
(-0.0343431 0.021349 0)
(-0.0403176 0.0232757 0)
(-0.0467262 0.0250974 0)
(-0.0535452 0.0268074 0)
(-0.0607499 0.0284015 0)
(-0.0683143 0.0298774 0)
(-0.076212 0.0312344 0)
(-0.084416 0.0324727 0)
(-0.0928993 0.0335937 0)
(-0.101635 0.0345994 0)
(-0.110596 0.0354922 0)
(-0.119757 0.0362749 0)
(-0.129091 0.0369504 0)
(-0.138573 0.0375217 0)
(-0.148179 0.0379919 0)
(-0.157882 0.0383638 0)
(-0.167661 0.0386402 0)
(-0.177491 0.0388237 0)
(-0.18735 0.0389167 0)
(-0.197214 0.0389214 0)
(-0.207063 0.0388395 0)
(-0.216874 0.0386729 0)
(-0.226626 0.0384229 0)
(-0.236298 0.0380907 0)
(-0.245869 0.0376773 0)
(-0.255319 0.0371835 0)
(-0.264627 0.0366099 0)
(-0.273773 0.0359571 0)
(-0.282738 0.0352254 0)
(-0.2915 0.0344152 0)
(-0.30004 0.0335266 0)
(-0.308339 0.0325601 0)
(-0.316378 0.0315158 0)
(-0.324136 0.0303941 0)
(-0.331594 0.0291954 0)
(-0.338734 0.0279204 0)
(-0.345536 0.0265697 0)
(-0.351983 0.0251442 0)
(-0.358056 0.0236452 0)
(-0.363737 0.0220739 0)
(-0.369009 0.020432 0)
(-0.373856 0.0187216 0)
(-0.378261 0.0169448 0)
(-0.382208 0.0151043 0)
(-0.385683 0.0132031 0)
(-0.388673 0.0112445 0)
(-0.391163 0.00923233 0)
(-0.393142 0.00717061 0)
(-0.3946 0.00506388 0)
(-0.395526 0.00291706 0)
(-0.395912 0.000735448 0)
(-0.395751 -0.00147528 0)
(-0.395038 -0.00370905 0)
(-0.393768 -0.00595945 0)
(-0.391939 -0.00821971 0)
(-0.38955 -0.0104827 0)
(-0.386603 -0.0127411 0)
(-0.383099 -0.0149872 0)
(-0.379043 -0.0172131 0)
(-0.374443 -0.0194107 0)
(-0.369306 -0.0215717 0)
(-0.363644 -0.0236876 0)
(-0.357467 -0.0257501 0)
(-0.350791 -0.0277505 0)
(-0.343633 -0.0296804 0)
(-0.33601 -0.0315313 0)
(-0.327943 -0.0332948 0)
(-0.319455 -0.0349628 0)
(-0.310568 -0.0365274 0)
(-0.301311 -0.0379807 0)
(-0.29171 -0.0393156 0)
(-0.281794 -0.040525 0)
(-0.271595 -0.0416024 0)
(-0.261145 -0.0425419 0)
(-0.250477 -0.0433378 0)
(-0.239628 -0.0439853 0)
(-0.228632 -0.0444802 0)
(-0.217526 -0.0448189 0)
(-0.206349 -0.0449985 0)
(-0.195139 -0.0450169 0)
(-0.183933 -0.0448729 0)
(-0.172772 -0.0445658 0)
(-0.161693 -0.0440961 0)
(-0.150735 -0.043465 0)
(-0.139937 -0.0426746 0)
(-0.129337 -0.0417279 0)
(-0.11897 -0.0406287 0)
(-0.108872 -0.0393818 0)
(-0.0990789 -0.0379931 0)
(-0.0896227 -0.0364692 0)
(-0.0805347 -0.0348176 0)
(-0.0718444 -0.033047 0)
(-0.0635789 -0.0311668 0)
(-0.0557629 -0.0291876 0)
(-0.0484185 -0.0271208 0)
(-0.041565 -0.0249791 0)
(-0.0352184 -0.0227761 0)
(-0.0293915 -0.0205266 0)
(-0.0240934 -0.0182468 0)
(-0.0193292 -0.0159542 0)
(-0.0151001 -0.0136679 0)
(-0.0114025 -0.0114086 0)
(-0.00822825 -0.00919922 0)
(-0.005564 -0.0070647 0)
(-0.00339109 -0.00503263 0)
(-0.00168509 -0.00313348 0)
(-0.000415524 -0.00140106 0)
(0.000454468 0.000127131 0)
(0.000968515 0.0014095 0)
(0.00117743 0.0024 0)
(0.00113983 0.00304785 0)
(0.000921998 0.00329733 0)
(0.000598657 0.00308777 0)
(0.000267071 0.0023532 0)
(5.67934e-05 0.00101673 0)
(-2.3479e-05 -0.000421964 0)
(-0.000256925 -0.000276489 0)
(-0.000876382 0.000631928 0)
(-0.00191296 0.00212637 0)
(-0.00340691 0.00406642 0)
(-0.00539681 0.00633416 0)
(-0.00791012 0.00883113 0)
(-0.0109648 0.0114761 0)
(-0.0145708 0.0142024 0)
(-0.0187312 0.0169558 0)
(-0.0234424 0.0196925 0)
(-0.0286956 0.0223777 0)
(-0.0344774 0.0249839 0)
(-0.0407704 0.0274898 0)
(-0.0475539 0.0298792 0)
(-0.0548048 0.0321403 0)
(-0.062498 0.0342647 0)
(-0.0706068 0.036247 0)
(-0.0791036 0.0380838 0)
(-0.0879598 0.0397739 0)
(-0.0971465 0.0413175 0)
(-0.106635 0.0427156 0)
(-0.116395 0.0439705 0)
(-0.1264 0.0450849 0)
(-0.136619 0.0460618 0)
(-0.147025 0.0469046 0)
(-0.15759 0.047617 0)
(-0.168288 0.0482023 0)
(-0.17909 0.048664 0)
(-0.189972 0.0490054 0)
(-0.200907 0.0492296 0)
(-0.211871 0.0493394 0)
(-0.222837 0.0493374 0)
(-0.233783 0.0492259 0)
(-0.244685 0.0490069 0)
(-0.255517 0.0486822 0)
(-0.266258 0.0482533 0)
(-0.276885 0.0477213 0)
(-0.287374 0.0470873 0)
(-0.297702 0.0463521 0)
(-0.307849 0.0455165 0)
(-0.31779 0.0445808 0)
(-0.327505 0.0435456 0)
(-0.336972 0.0424114 0)
(-0.346168 0.0411784 0)
(-0.355071 0.0398473 0)
(-0.363662 0.0384183 0)
(-0.371918 0.0368924 0)
(-0.379819 0.0352702 0)
(-0.387343 0.0335527 0)
(-0.394471 0.0317413 0)
(-0.401183 0.0298375 0)
(-0.407459 0.027843 0)
(-0.413281 0.0257601 0)
(-0.41863 0.0235914 0)
(-0.423488 0.0213399 0)
(-0.427839 0.0190088 0)
(-0.431667 0.016602 0)
(-0.434956 0.0141238 0)
(-0.437693 0.0115791 0)
(-0.439864 0.00897287 0)
(-0.441458 0.006311 0)
(-0.442465 0.00359966 0)
(-0.442876 0.000845529 0)
(-0.442682 -0.00194423 0)
(-0.441879 -0.00476199 0)
(-0.440461 -0.00759969 0)
(-0.438427 -0.0104488 0)
(-0.435776 -0.0133006 0)
(-0.432509 -0.0161456 0)
(-0.428629 -0.0189744 0)
(-0.424142 -0.021777 0)
(-0.419055 -0.0245434 0)
(-0.413376 -0.0272632 0)
(-0.407119 -0.029926 0)
(-0.400296 -0.0325211 0)
(-0.392924 -0.0350379 0)
(-0.385019 -0.0374659 0)
(-0.376604 -0.0397946 0)
(-0.367699 -0.0420134 0)
(-0.35833 -0.0441124 0)
(-0.348522 -0.0460817 0)
(-0.338304 -0.0479116 0)
(-0.327706 -0.0495931 0)
(-0.316761 -0.0511175 0)
(-0.305502 -0.0524768 0)
(-0.293965 -0.0536635 0)
(-0.282185 -0.0546707 0)
(-0.270202 -0.0554924 0)
(-0.258054 -0.0561233 0)
(-0.245782 -0.0565591 0)
(-0.233427 -0.056796 0)
(-0.221029 -0.0568316 0)
(-0.208632 -0.0566642 0)
(-0.196277 -0.0562933 0)
(-0.184007 -0.0557192 0)
(-0.171864 -0.0549435 0)
(-0.159889 -0.0539688 0)
(-0.148124 -0.0527989 0)
(-0.136608 -0.0514387 0)
(-0.12538 -0.049894 0)
(-0.114478 -0.0481722 0)
(-0.103938 -0.0462816 0)
(-0.093794 -0.0442316 0)
(-0.0840779 -0.042033 0)
(-0.0748195 -0.0396977 0)
(-0.0660456 -0.0372388 0)
(-0.0577807 -0.0346707 0)
(-0.0500457 -0.0320091 0)