/*--------------------------------*- C++ -*----------------------------------*\
  =========                 |
  \\      /  F ield         | OpenFOAM: The Open Source CFD Toolbox
   \\    /   O peration     | Website:  https://openfoam.org
    \\  /    A nd           | Version:  9
     \\/     M anipulation  |
\*---------------------------------------------------------------------------*/
FoamFile
{
    format      ascii;
    class       volScalarField;
    location    "0.6";
    object      p;
}
// * * * * * * * * * * * * * * * * * * * * * * * * * * * * * * * * * * * * * //

dimensions      [0 2 -2 0 0 0 0];

internalField   nonuniform List<scalar> 
16384
(
0.000112694
0.00138198
0.000494247
-0.00306972
-0.00910076
-0.0172922
-0.0272915
-0.0387381
-0.0512942
-0.064655
-0.0785504
-0.0927434
-0.107028
-0.121224
-0.135179
-0.148759
-0.161852
-0.174362
-0.186208
-0.197321
-0.207645
-0.217132
-0.225744
-0.233448
-0.240219
-0.246036
-0.250883
-0.254747
-0.257617
-0.259486
-0.260348
-0.260197
-0.259032
-0.256848
-0.253646
-0.249424
-0.244182
-0.237919
-0.230639
-0.222341
-0.213029
-0.202707
-0.191378
-0.17905
-0.16573
-0.151426
-0.13615
-0.119916
-0.102739
-0.0846363
-0.0656298
-0.045743
-0.025003
-0.0034402
0.0189116
0.042015
0.0658286
0.0903074
0.115402
0.141061
0.167226
0.193837
0.220829
0.248134
0.27568
0.303392
0.33119
0.358995
0.38672
0.414281
0.441587
0.468549
0.495076
0.521076
0.546456
0.571125
0.594992
0.617966
0.63996
0.66089
0.680674
0.699232
0.716493
0.732386
0.746849
0.759824
0.771261
0.781115
0.789352
0.795942
0.800867
0.804114
0.805682
0.805577
0.803816
0.800424
0.795437
0.7889
0.780866
0.7714
0.760575
0.748473
0.735184
0.72081
0.705458
0.689244
0.672294
0.654738
0.636717
0.618376
0.599869
0.581355
0.563
0.544976
0.527461
0.510638
0.494697
0.479831
0.466236
0.454111
0.443653
0.435047
0.428461
0.424015
0.421742
0.421521
0.422979
0.4251
-0.000989277
0.000211748
-0.000819385
-0.00416617
-0.00954805
-0.0167581
-0.0255485
-0.0356423
-0.046766
-0.0586636
-0.0711002
-0.0838646
-0.0967685
-0.109646
-0.122351
-0.134758
-0.146756
-0.158251
-0.169163
-0.179422
-0.18897
-0.197757
-0.205744
-0.212895
-0.219182
-0.224581
-0.229074
-0.232645
-0.235282
-0.236974
-0.237714
-0.237495
-0.236313
-0.234163
-0.231043
-0.226951
-0.221887
-0.215849
-0.208839
-0.200859
-0.19191
-0.181996
-0.171121
-0.159293
-0.146518
-0.132806
-0.118168
-0.102616
-0.0861676
-0.0688395
-0.0506524
-0.03163
-0.0117985
0.00881235
0.0301697
0.0522371
0.0749749
0.0983395
0.122284
0.146757
0.171705
0.197069
0.222788
0.248796
0.275025
0.301403
0.327856
0.354307
0.380674
0.406877
0.432831
0.458451
0.483651
0.508345
0.532445
0.555865
0.578519
0.600323
0.621195
0.641055
0.659827
0.677437
0.693817
0.708903
0.722635
0.734962
0.745836
0.755217
0.763072
0.769376
0.774112
0.777269
0.778848
0.778856
0.77731
0.774234
0.769665
0.763645
0.756227
0.747472
0.737451
0.726242
0.713932
0.700616
0.686398
0.671388
0.655705
0.639472
0.622821
0.605891
0.588825
0.571773
0.554888
0.538332
0.522267
0.506861
0.492286
0.478712
0.466312
0.455255
0.445701
0.437797
0.431663
0.427373
0.424919
0.424192
0.425088
0.427211
-6.59625e-05
0.00125449
0.000216465
-0.00299032
-0.0079866
-0.0145899
-0.0225994
-0.0317849
-0.0419157
-0.0527714
-0.0641458
-0.07585
-0.0877127
-0.0995808
-0.111318
-0.122806
-0.133938
-0.144624
-0.154784
-0.164351
-0.173267
-0.181481
-0.188952
-0.195644
-0.201528
-0.206579
-0.210776
-0.214102
-0.216544
-0.218089
-0.218728
-0.218454
-0.217261
-0.215143
-0.212098
-0.208123
-0.203217
-0.197377
-0.190606
-0.182903
-0.174271
-0.164713
-0.154234
-0.14284
-0.130537
-0.117336
-0.103248
-0.0882839
-0.0724606
-0.0557953
-0.0383081
-0.0200218
-0.000962361
0.0188416
0.0393581
0.0605518
0.0823844
0.104814
0.127794
0.151278
0.175211
0.199538
0.2242
0.249134
0.274275
0.299554
0.324899
0.350236
0.37549
0.400581
0.42543
0.449955
0.474074
0.497705
0.520765
0.543171
0.564843
0.585699
0.605663
0.624659
0.642613
0.659458
0.675128
0.689562
0.702706
0.714509
0.724928
0.733925
0.74147
0.74754
0.752118
0.755198
0.756778
0.756868
0.755485
0.752653
0.748407
0.742789
0.73585
0.72765
0.718257
0.707745
0.696199
0.68371
0.670378
0.656307
0.64161
0.626407
0.610822
0.594986
0.579035
0.56311
0.547356
0.531922
0.51696
0.502624
0.489072
0.476458
0.464936
0.454653
0.445748
0.438345
0.432544
0.42841
0.42594
0.425077
0.425981
0.428669
0.0035116
0.00461397
0.00341909
0.000197102
-0.00464596
-0.0109301
-0.0184745
-0.0270769
-0.0365357
-0.0466572
-0.0572588
-0.068171
-0.0792389
-0.0903221
-0.101295
-0.112045
-0.122474
-0.132496
-0.142034
-0.151022
-0.159404
-0.167132
-0.174163
-0.180462
-0.185999
-0.190748
-0.194689
-0.197803
-0.200075
-0.201494
-0.202048
-0.20173
-0.200533
-0.198451
-0.195479
-0.191615
-0.186857
-0.181203
-0.174653
-0.167207
-0.158868
-0.149638
-0.139522
-0.128525
-0.116654
-0.103919
-0.0903285
-0.0758968
-0.060638
-0.0445693
-0.0277102
-0.0100828
0.00828783
0.0273739
0.0471444
0.0675654
0.0885996
0.110206
0.132342
0.154959
0.178007
0.201433
0.225178
0.249183
0.273384
0.297716
0.32211
0.346494
0.370795
0.394937
0.418845
0.44244
0.465643
0.488374
0.510555
0.532106
0.552949
0.573009
0.59221
0.610479
0.627749
0.643952
0.659026
0.672915
0.685565
0.696929
0.706965
0.715639
0.722922
0.728791
0.733233
0.73624
0.737814
0.737963
0.736705
0.734063
0.730073
0.724774
0.718217
0.71046
0.701569
0.691615
0.680681
0.668855
0.65623
0.64291
0.629002
0.61462
0.599882
0.584915
0.569846
0.554808
0.53994
0.525381
0.511273
0.497759
0.484984
0.47309
0.462218
0.4525
0.444062
0.437015
0.431456
0.427457
0.425037
0.424194
0.425263
0.428475
0.00958368
0.0100304
0.00842325
0.00500556
0.000134727
-0.00601706
-0.0132847
-0.0214897
-0.0304555
-0.040012
-0.0499978
-0.0602619
-0.0706649
-0.0810796
-0.0913911
-0.101496
-0.111303
-0.12073
-0.129706
-0.138168
-0.146062
-0.153342
-0.159966
-0.1659
-0.171113
-0.175582
-0.179283
-0.1822
-0.184315
-0.185618
-0.186096
-0.185742
-0.184547
-0.182505
-0.179612
-0.175863
-0.171257
-0.16579
-0.159463
-0.152276
-0.14423
-0.135327
-0.125572
-0.114969
-0.103525
-0.091249
-0.0781503
-0.0642412
-0.0495358
-0.0340503
-0.0178038
-0.00081734
0.0168849
0.0352761
0.0543264
0.0740032
0.0942704
0.115089
0.136417
0.158208
0.180414
0.202984
0.225861
0.248988
0.272304
0.295745
0.319246
0.342737
0.366148
0.389406
0.412438
0.435168
0.45752
0.479418
0.500786
0.521548
0.541628
0.560954
0.579453
0.597056
0.613696
0.62931
0.643838
0.657227
0.669423
0.680384
0.690069
0.698445
0.705484
0.711166
0.715478
0.718413
0.719974
0.720168
0.719014
0.716535
0.712765
0.707744
0.701521
0.694152
0.685699
0.676235
0.665837
0.654591
0.642588
0.629924
0.616705
0.60304
0.589041
0.574827
0.560523
0.546252
0.532145
0.518333
0.50495
0.492128
0.480002
0.468702
0.458358
0.449091
0.441018
0.434244
0.428861
0.424951
0.422553
0.421708
0.42284
0.426273
0.0178716
0.017316
0.015062
0.0112694
0.00619753
5.36083e-06
-0.00715666
-0.0151324
-0.0237679
-0.0329144
-0.0424298
-0.0521805
-0.0620423
-0.071901
-0.0816525
-0.0912027
-0.100467
-0.109372
-0.117849
-0.12584
-0.133295
-0.140169
-0.146422
-0.152022
-0.156939
-0.16115
-0.164632
-0.167368
-0.169342
-0.170541
-0.170954
-0.170572
-0.169387
-0.167393
-0.164583
-0.160954
-0.156502
-0.151226
-0.145124
-0.138195
-0.130441
-0.121863
-0.112466
-0.102252
-0.0912295
-0.0794048
-0.0667878
-0.0533896
-0.0392237
-0.0243056
-0.00865331
0.00771289
0.02477
0.0424922
0.0608511
0.0798151
0.0993497
0.119417
0.139978
0.160986
0.182397
0.204159
0.226219
0.248523
0.27101
0.29362
0.316288
0.338949
0.361535
0.383975
0.406197
0.42813
0.4497
0.470834
0.491457
0.511496
0.530879
0.549535
0.567395
0.584391
0.600459
0.615538
0.629571
0.642504
0.65429
0.664884
0.674249
0.682352
0.689168
0.694677
0.698866
0.701731
0.703272
0.703499
0.70243
0.700088
0.696505
0.691721
0.685783
0.678746
0.670672
0.661629
0.651693
0.640946
0.629477
0.617379
0.604752
0.591699
0.578332
0.564761
0.551105
0.537483
0.524016
0.510828
0.498045
0.485791
0.47419
0.463363
0.453431
0.444507
0.436699
0.430107
0.424825
0.420937
0.418496
0.417568
0.418606
0.421954
0.0280517
0.0262439
0.0231504
0.0188214
0.0133898
0.00699883
-0.00021468
-0.00811593
-0.0165718
-0.0254529
-0.0346351
-0.0440011
-0.0534412
-0.0628536
-0.0721453
-0.0812317
-0.0900364
-0.098491
-0.106535
-0.114114
-0.12118
-0.127693
-0.133615
-0.138916
-0.143568
-0.147547
-0.150833
-0.153408
-0.155258
-0.156368
-0.156729
-0.156331
-0.155165
-0.153225
-0.150505
-0.147
-0.142707
-0.137623
-0.131746
-0.125075
-0.117611
-0.109355
-0.10031
-0.0904797
-0.0798693
-0.0684858
-0.056338
-0.0434364
-0.0297934
-0.0154236
-0.000344093
0.015426
0.0318647
0.0489476
0.0666473
0.0849339
0.103774
0.123132
0.142969
0.163242
0.183906
0.204914
0.226213
0.247751
0.26947
0.291311
0.313213
0.33511
0.356938
0.378629
0.400113
0.42132
0.44218
0.46262
0.482569
0.501956
0.520711
0.538764
0.556049
0.572501
0.588056
0.602657
0.616247
0.628774
0.640192
0.650458
0.659536
0.667395
0.674009
0.67936
0.683436
0.686232
0.68775
0.687998
0.686995
0.684763
0.681334
0.676747
0.671048
0.66429
0.656532
0.647843
0.638295
0.627967
0.616945
0.60532
0.593187
0.580646
0.567802
0.554764
0.541641
0.528549
0.515602
0.502917
0.490611
0.478802
0.467605
0.457135
0.447501
0.438812
0.431167
0.424664
0.419396
0.415448
0.41288
0.41177
0.412555
0.415554
0.0397907
0.0365565
0.0324729
0.0274708
0.0215429
0.0148162
0.00741485
-0.000546583
-0.00895459
-0.0176977
-0.0266684
-0.0357648
-0.0448908
-0.0539569
-0.062881
-0.0715878
-0.0800091
-0.0880836
-0.0957563
-0.102978
-0.109707
-0.115903
-0.121535
-0.126572
-0.130988
-0.134763
-0.137877
-0.140312
-0.142055
-0.143093
-0.143416
-0.143013
-0.141876
-0.139999
-0.137376
-0.134001
-0.129871
-0.124982
-0.119332
-0.11292
-0.105745
-0.0978077
-0.0891109
-0.0796574
-0.0694517
-0.0585
-0.04681
-0.0343913
-0.0212555
-0.00741607
0.00711114
0.022308
0.0381538
0.0546255
0.071697
0.0893397
0.107522
0.126209
0.145365
0.164947
0.184913
0.205216
0.225807
0.246635
0.267643
0.288775
0.309971
0.331168
0.352304
0.373311
0.394124
0.414673
0.43489
0.454704
0.474047
0.492848
0.51104
0.528555
0.545328
0.561295
0.576395
0.590571
0.603768
0.615935
0.627027
0.637003
0.645827
0.653468
0.659902
0.665111
0.669084
0.671814
0.673306
0.673566
0.672613
0.670468
0.667164
0.662737
0.657233
0.650704
0.643207
0.634809
0.62558
0.615597
0.604942
0.593704
0.581974
0.56985
0.557431
0.544821
0.532126
0.519454
0.506915
0.494619
0.482678
0.471201
0.460296
0.450072
0.440631
0.432074
0.424497
0.417991
0.412647
0.40855
0.405765
0.404369
0.404754
0.407188
0.0527737
0.0479962
0.0428099
0.0370243
0.0304863
0.023308
0.0156025
0.00746499
-0.00100934
-0.00972565
-0.0185921
-0.0275209
-0.0364292
-0.0452395
-0.05388
-0.0622847
-0.0703939
-0.0781532
-0.085514
-0.092433
-0.0988713
-0.104795
-0.110174
-0.114981
-0.119194
-0.122793
-0.125758
-0.128076
-0.129732
-0.130714
-0.131013
-0.130618
-0.129522
-0.127718
-0.1252
-0.121962
-0.118
-0.11331
-0.107889
-0.101736
-0.0948499
-0.0872303
-0.0788785
-0.0697968
-0.0599891
-0.0494605
-0.0382177
-0.0262695
-0.0136261
-0.000300054
0.013694
0.0283393
0.0436163
0.0595034
0.0759759
0.0930066
0.110565
0.12862
0.147133
0.166067
0.18538
0.205026
0.224959
0.245128
0.265481
0.28596
0.306509
0.327066
0.347571
0.367958
0.388163
0.408118
0.427756
0.44701
0.46581
0.48409
0.501781
0.518819
0.535139
0.550679
0.565378
0.57918
0.592033
0.603885
0.614693
0.624415
0.633016
0.640467
0.646743
0.651826
0.655706
0.658376
0.65984
0.660105
0.659188
0.657111
0.653904
0.649606
0.644258
0.637913
0.630626
0.622461
0.613488
0.603781
0.59342
0.58249
0.57108
0.559284
0.547197
0.53492
0.522553
0.510201
0.497967
0.485957
0.474275
0.463025
0.452309
0.442229
0.432882
0.424361
0.416759
0.410161
0.404654
0.400321
0.397226
0.395445
0.395303
0.397007
0.0667128
0.0603177
0.0539474
0.0472919
0.0400514
0.0323255
0.0242174
0.0158046
0.00716537
-0.0016211
-0.0104774
-0.0193294
-0.0281064
-0.0367424
-0.0451757
-0.0533498
-0.0612129
-0.068718
-0.0758229
-0.0824897
-0.0886846
-0.0943776
-0.0995421
-0.104155
-0.108195
-0.111645
-0.114488
-0.11671
-0.118299
-0.119243
-0.119534
-0.119162
-0.118119
-0.116398
-0.113994
-0.1109
-0.107112
-0.102626
-0.0974383
-0.0915467
-0.0849495
-0.0776459
-0.0696364
-0.0609223
-0.0515065
-0.0413931
-0.0305878
-0.0190982
-0.00693343
0.00589525
0.0193745
0.0334887
0.04822
0.0635478
0.0794492
0.0958985
0.112867
0.130323
0.148233
0.16656
0.185262
0.204298
0.223621
0.243182
0.26293
0.282811
0.302769
0.322744
0.342677
0.362504
0.382161
0.401584
0.420706
0.439461
0.45778
0.475599
0.492851
0.509471
0.525395
0.540562
0.554914
0.568394
0.580949
0.59253
0.603093
0.612598
0.621009
0.628296
0.634437
0.639412
0.643211
0.645828
0.647264
0.647529
0.646637
0.644611
0.64148
0.637281
0.632055
0.625852
0.618729
0.610746
0.60197
0.592476
0.58234
0.571646
0.560478
0.548928
0.537089
0.525055
0.512925
0.500798
0.488774
0.476951
0.465431
0.45431
0.443687
0.433656
0.424309
0.415735
0.408019
0.401245
0.395491
0.390837
0.387347
0.385092
0.38432
0.385166
0.0813478
0.0732909
0.0656805
0.0580894
0.0500732
0.0417209
0.0331283
0.0243566
0.0154679
0.00652743
-0.00240108
-0.011256
-0.0199787
-0.0285137
-0.0368094
-0.0448181
-0.0524962
-0.0598039
-0.0667054
-0.0731685
-0.0791644
-0.0846676
-0.0896552
-0.094107
-0.0980054
-0.101334
-0.10408
-0.106229
-0.107772
-0.108698
-0.108997
-0.108662
-0.107685
-0.10606
-0.103779
-0.100839
-0.097232
-0.0929553
-0.0880048
-0.0823773
-0.0760704
-0.0690827
-0.0614135
-0.0530635
-0.0440343
-0.0343291
-0.0239524
-0.0129105
-0.00121136
0.011135
0.0241167
0.0377194
0.0519267
0.0667196
0.0820766
0.0979734
0.114383
0.131276
0.148619
0.166376
0.18451
0.202978
0.221737
0.240738
0.259932
0.279267
0.298687
0.318136
0.337553
0.356878
0.376047
0.394997
0.413662
0.431977
0.449877
0.467294
0.484163
0.500422
0.516006
0.530856
0.544912
0.558118
0.570422
0.581776
0.592135
0.601458
0.609711
0.616864
0.622892
0.627778
0.63151
0.634081
0.635494
0.635756
0.634882
0.632893
0.629819
0.625693
0.620558
0.614462
0.60746
0.599611
0.590981
0.581641
0.571668
0.561141
0.550145
0.538765
0.527093
0.515221
0.503243
0.491253
0.479348
0.467624
0.456174
0.445093
0.434472
0.424401
0.414967
0.406254
0.398343
0.391311
0.385233
0.380181
0.376217
0.373411
0.371924
0.371821
0.0964436
0.0867025
0.0778149
0.0692398
0.0603911
0.0513496
0.0422053
0.0330044
0.0237949
0.0146284
0.00555627
-0.00337174
-0.0121081
-0.0206076
-0.0288282
-0.036731
-0.0442801
-0.051443
-0.0581903
-0.0644955
-0.0703349
-0.0756874
-0.0805342
-0.0848585
-0.0886455
-0.0918818
-0.0945555
-0.096656
-0.0981735
-0.0990992
-0.0994248
-0.0991429
-0.0982463
-0.0967283
-0.094583
-0.0918043
-0.0883872
-0.0843266
-0.0796183
-0.0742585
-0.0682441
-0.0615727
-0.054243
-0.0462543
-0.0376074
-0.0283041
-0.018348
-0.00774385
0.00350154
0.0153796
0.0278799
0.0409895
0.0546934
0.0689743
0.0838121
0.0991842
0.115065
0.131426
0.148237
0.165463
0.183068
0.20101
0.219248
0.237735
0.256424
0.275262
0.294197
0.313171
0.332127
0.351005
0.369743
0.388277
0.406543
0.424477
0.442013
0.459086
0.475631
0.491584
0.506883
0.521467
0.535277
0.548259
0.560359
0.571529
0.581723
0.590902
0.59903
0.606076
0.612017
0.616834
0.620514
0.623051
0.624446
0.624705
0.623844
0.621882
0.618848
0.614775
0.609704
0.603683
0.596764
0.589007
0.580475
0.571238
0.56137
0.550949
0.540057
0.528778
0.517201
0.505414
0.493507
0.481574
0.469706
0.457995
0.446532
0.435405
0.424702
0.414508
0.404905
0.395974
0.387791
0.380427
0.373951
0.368431
0.363926
0.360502
0.358235
0.357114
0.111787
0.100355
0.090168
0.0805746
0.0708504
0.0610701
0.0513197
0.041632
0.0320415
0.0225879
0.0133107
0.0042487
-0.00456108
-0.0130833
-0.0212851
-0.0291357
-0.036607
-0.0436737
-0.0503125
-0.0565028
-0.062226
-0.0674654
-0.0722063
-0.0764355
-0.0801411
-0.0833125
-0.08594
-0.0880149
-0.089529
-0.0904746
-0.0908446
-0.090632
-0.0898304
-0.0884333
-0.0864347
-0.0838287
-0.0806098
-0.0767728
-0.0723127
-0.0672251
-0.0615062
-0.0551528
-0.0481623
-0.0405333
-0.0322652
-0.0233587
-0.0138161
-0.00364079
0.00716177
0.0185845
0.0306183
0.0432519
0.0564719
0.0702623
0.0846048
0.0994783
0.114859
0.13072
0.147032
0.163761
0.180874
0.198331
0.21609
0.234108
0.252336
0.270726
0.289224
0.307775
0.326323
0.344807
0.363168
0.381341
0.399265
0.416873
0.434102
0.450886
0.467161
0.482863
0.49793
0.512301
0.525917
0.538722
0.550664
0.561692
0.571763
0.580834
0.588871
0.595841
0.601721
0.60649
0.610136
0.612652
0.614037
0.614297
0.613447
0.611505
0.608499
0.604462
0.599433
0.593459
0.586591
0.578887
0.57041
0.561228
0.551413
0.541042
0.530194
0.518952
0.507401
0.495628
0.483721
0.471769
0.459861
0.448085
0.436528
0.425277
0.414413
0.404019
0.394173
0.38495
0.376422
0.368656
0.361718
0.355665
0.35056
0.346463
0.343363
0.341177
0.127185
0.114066
0.102568
0.0919337
0.0813025
0.0707455
0.0603458
0.0501241
0.0401029
0.0303105
0.0207759
0.0115271
0.00259161
-0.00600476
-0.0142376
-0.0220845
-0.0295248
-0.0365398
-0.0431127
-0.0492283
-0.0548731
-0.0600353
-0.0647039
-0.0688694
-0.072523
-0.0756569
-0.0782638
-0.0803367
-0.0818692
-0.082855
-0.0832879
-0.0831618
-0.0824706
-0.0812084
-0.0793692
-0.0769471
-0.0739363
-0.0703311
-0.0661262
-0.0613163
-0.0558969
-0.0498638
-0.0432135
-0.0359433
-0.0280516
-0.0195378
-0.0104026
-0.000648399
0.00972107
0.0207001
0.0322813
0.0444548
0.0572088
0.070529
0.0843986
0.0987981
0.113705
0.129095
0.144939
0.161207
0.177863
0.194872
0.212193
0.229783
0.247596
0.265583
0.283692
0.301869
0.320059
0.338202
0.356237
0.374104
0.391738
0.409076
0.426052
0.442602
0.458662
0.474167
0.489054
0.503263
0.516734
0.529411
0.54124
0.552171
0.562159
0.571161
0.579141
0.586067
0.591913
0.596659
0.600291
0.6028
0.604186
0.604455
0.603617
0.601692
0.598706
0.594691
0.589686
0.583735
0.57689
0.569207
0.560747
0.551577
0.541768
0.531395
0.520536
0.509271
0.497685
0.485861
0.473886
0.461845
0.449825
0.437911
0.426188
0.414738
0.403641
0.392975
0.382815
0.373231
0.364292
0.356061
0.348599
0.341958
0.336201
0.331385
0.327413
0.324128
0.142461
0.127665
0.114855
0.103165
0.0916051
0.0802429
0.0691603
0.058367
0.0478742
0.0377001
0.0278635
0.0183829
0.0092762
0.000560575
-0.00774795
-0.0156346
-0.023086
-0.0300901
-0.0366362
-0.0427146
-0.0483169
-0.0534357
-0.0580642
-0.0621964
-0.0658268
-0.0689502
-0.0715616
-0.0736562
-0.0752293
-0.0762758
-0.0767906
-0.0767686
-0.0762041
-0.0750916
-0.0734253
-0.0711991
-0.0684069
-0.0650429
-0.0611009
-0.0565752
-0.0514603
-0.0457509
-0.0394426
-0.0325316
-0.0250149
-0.0168906
-0.00815812
0.00118173
0.0111267
0.0216726
0.0328135
0.0445415
0.0568461
0.0697149
0.0831326
0.0970813
0.11154
0.126486
0.141893
0.15773
0.173965
0.190562
0.207483
0.224685
0.242124
0.259752
0.277518
0.295369
0.313249
0.3311
0.348862
0.366474
0.383872
0.400992
0.417769
0.434139
0.450036
0.465396
0.480156
0.494254
0.50763
0.520227
0.53199
0.542868
0.552815
0.561788
0.569748
0.576663
0.582505
0.587254
0.590894
0.593415
0.594816
0.595101
0.594281
0.592374
0.589403
0.585401
0.580405
0.574459
0.567613
0.559921
0.551445
0.54225
0.532405
0.521984
0.511063
0.499723
0.488044
0.476109
0.464003
0.451808
0.43961
0.427491
0.415533
0.403816
0.392417
0.381412
0.370871
0.360863
0.351452
0.342698
0.334657
0.327379
0.320924
0.315351
0.310476
0.306071
0.15745
0.140996
0.126876
0.114124
0.101622
0.0894341
0.0776431
0.0662485
0.0552513
0.04466
0.0344843
0.0247333
0.0154162
0.00654195
-0.00188148
-0.00984674
-0.0173474
-0.0243778
-0.030933
-0.0370091
-0.0426025
-0.0477101
-0.0523293
-0.0564575
-0.0600925
-0.0632317
-0.0658727
-0.0680126
-0.0696484
-0.0707764
-0.0713927
-0.0714928
-0.0710719
-0.0701246
-0.0686452
-0.0666278
-0.0640659
-0.0609532
-0.057283
-0.0530488
-0.0482442
-0.0428631
-0.0368998
-0.0303493
-0.0232073
-0.0154706
-0.00713722
0.00179369
0.0113213
0.0214433
0.0321552
0.0434507
0.0553212
0.0677558
0.0807409
0.0942604
0.108295
0.122823
0.13782
0.153256
0.169102
0.185322
0.20188
0.218733
0.235839
0.25315
0.270617
0.288187
0.305804
0.323412
0.34095
0.358357
0.37557
0.392525
0.409156
0.425398
0.441185
0.456453
0.471138
0.485176
0.498507
0.511072
0.522816
0.533687
0.543636
0.552619
0.560597
0.567536
0.573407
0.578187
0.58186
0.584414
0.585848
0.586162
0.585368
0.583482
0.580526
0.576532
0.571536
0.565579
0.558712
0.550989
0.542468
0.533214
0.523296
0.512785
0.501758
0.490293
0.478469
0.466368
0.454072
0.441665
0.429227
0.41684
0.404583
0.392536
0.380772
0.369364
0.358382
0.34789
0.33795
0.32862
0.319951
0.31199
0.304798
0.298437
0.292635
0.287094
0.172002
0.15391
0.13849
0.124675
0.111221
0.098195
0.0856772
0.0736587
0.0621309
0.0510938
0.0405479
0.0304941
0.0209332
0.011866
0.0032932
-0.00478517
-0.0123693
-0.0194597
-0.0260574
-0.0321634
-0.0377792
-0.042906
-0.0475451
-0.0516976
-0.0553641
-0.0585451
-0.0612403
-0.063449
-0.0651697
-0.0664002
-0.0671377
-0.0673787
-0.0671186
-0.0663527
-0.0650753
-0.0632802
-0.060961
-0.0581107
-0.0547221
-0.0507878
-0.0463005
-0.0412532
-0.0356389
-0.0294514
-0.0226852
-0.0153355
-0.00739871
0.00112739
0.0102437
0.0199495
0.030242
0.0411167
0.0525668
0.0645829
0.0771532
0.0902633
0.103896
0.11803
0.132643
0.147708
0.163195
0.17907
0.195299
0.21184
0.228651
0.245686
0.262896
0.280229
0.29763
0.315041
0.332403
0.349656
0.366734
0.383574
0.40011
0.416277
0.432007
0.447235
0.461895
0.475925
0.489261
0.501844
0.513618
0.524527
0.534523
0.543559
0.551596
0.558596
0.564529
0.569372
0.573105
0.575717
0.577202
0.577563
0.576807
0.574949
0.572012
0.568025
0.563022
0.557045
0.550143
0.542367
0.533778
0.524437
0.514413
0.503776
0.492602
0.480967
0.468951
0.456634
0.444096
0.43142
0.418685
0.405971
0.393358
0.38092
0.368732
0.356863
0.345382
0.334351
0.323831
0.313875
0.304533
0.295848
0.287886
0.280708
0.273961
0.267277
0.185976
0.166269
0.149561
0.134686
0.120279
0.106406
0.0931489
0.0804896
0.0684112
0.0569051
0.0459639
0.0355802
0.025747
0.0164575
0.00770503
-0.000517002
-0.00821525
-0.0153963
-0.0220667
-0.0282326
-0.0339001
-0.0390748
-0.0437617
-0.0479655
-0.0516899
-0.0549378
-0.0577115
-0.0600122
-0.06184
-0.0631943
-0.0640731
-0.0644739
-0.0643927
-0.0638249
-0.062765
-0.0612069
-0.0591436
-0.0565677
-0.0534713
-0.0498464
-0.0456846
-0.0409777
-0.0357177
-0.029897
-0.0235087
-0.0165465
-0.00900542
-0.000881401
0.00782807
0.0171239
0.0270053
0.0374694
0.048511
0.0601226
0.0722943
0.0850131
0.0982635
0.112026
0.12628
0.141
0.156157
0.171719
0.187651
0.203915
0.220468
0.237266
0.25426
0.271398
0.288626
0.305886
0.32312
0.340266
0.357259
0.374035
0.390527
0.40667
0.422394
0.437634
0.452323
0.466396
0.479789
0.49244
0.504292
0.515288
0.525376
0.53451
0.542647
0.549747
0.55578
0.560719
0.564544
0.56724
0.568802
0.569228
0.568526
0.56671
0.563799
0.559821
0.55481
0.548807
0.541858
0.534016
0.525338
0.515887
0.505729
0.494934
0.483576
0.471733
0.459481
0.446901
0.434073
0.421077
0.407992
0.394899
0.381873
0.368989
0.356321
0.343938
0.331904
0.320283
0.309133
0.298507
0.28845
0.279005
0.270242
0.262223
0.254515
0.246681
0.199237
0.177941
0.15996
0.144033
0.128675
0.113952
0.0999472
0.0866355
0.0739915
0.0619986
0.0506417
0.0399058
0.0297762
0.0202391
0.0112809
0.00288822
-0.0049516
-0.012251
-0.0190217
-0.0252751
-0.0310218
-0.0362713
-0.0410327
-0.0453137
-0.0491212
-0.0524607
-0.0553368
-0.0577525
-0.0597097
-0.061209
-0.0622496
-0.0628296
-0.0629456
-0.0625934
-0.0617675
-0.0604616
-0.0586683
-0.0563798
-0.0535875
-0.0502824
-0.0464552
-0.0420967
-0.0371974
-0.0317486
-0.0257418
-0.0191692
-0.0120241
-0.0043009
0.00400471
0.0128954
0.0223722
0.032434
0.0430775
0.0542971
0.0660844
0.0784284
0.091315
0.104727
0.118645
0.133044
0.147897
0.163175
0.178842
0.194862
0.211193
0.22779
0.244607
0.261591
0.278689
0.295843
0.312994
0.33008
0.347037
0.363798
0.380298
0.396467
0.412238
0.427543
0.442313
0.456481
0.469982
0.482753
0.494733
0.505865
0.516095
0.525372
0.533653
0.540897
0.547069
0.552141
0.556091
0.558903
0.560568
0.561084
0.560456
0.558696
0.555822
0.551861
0.546846
0.540815
0.533814
0.525895
0.517114
0.507532
0.497217
0.486236
0.474664
0.462576
0.45005
0.437166
0.424003
0.41064
0.397157
0.383633
0.370143
0.356762
0.343563
0.330613
0.317978
0.305719
0.293893
0.282553
0.271744
0.261505
0.251912
0.243032
0.23435
0.225362
0.21166
0.188802
0.169566
0.152597
0.136292
0.12072
0.105964
0.0919931
0.0787727
0.0662796
0.054491
0.0433847
0.0329389
0.0231327
0.0139459
0.00535896
-0.00264685
-0.0100895
-0.016986
-0.0233524
-0.0292037
-0.0345536
-0.0394146
-0.0437978
-0.0477129
-0.0511681
-0.05417
-0.0567236
-0.0588324
-0.0604981
-0.0617212
-0.0625002
-0.0628325
-0.0627139
-0.062139
-0.0611013
-0.0595932
-0.057606
-0.0551306
-0.0521569
-0.0486748
-0.0446737
-0.040143
-0.0350724
-0.029452
-0.0232725
-0.0165253
-0.00920326
-0.00130015
0.00718853
0.0162656
0.0259318
0.0361858
0.0470237
0.0584391
0.0704227
0.0829622
0.0960422
0.109644
0.123745
0.13832
0.15334
0.168772
0.184579
0.200721
0.217154
0.233831
0.250701
0.26771
0.284801
0.301914
0.318987
0.335954
0.352751
0.369307
0.385555
0.401425
0.416846
0.43175
0.446066
0.459729
0.472672
0.484833
0.496152
0.506573
0.516043
0.524515
0.531947
0.538301
0.543547
0.54766
0.550622
0.552422
0.553055
0.552524
0.55084
0.54802
0.544088
0.539075
0.53302
0.525965
0.517963
0.509068
0.499341
0.488849
0.47766
0.465846
0.453483
0.440648
0.427422
0.413883
0.400111
0.386185
0.372182
0.358181
0.344255
0.330476
0.316912
0.303628
0.290685
0.278141
0.266048
0.254451
0.243387
0.232938
0.223176
0.213508
0.203363
0.223126
0.198734
0.178262
0.160262
0.14302
0.126602
0.111095
0.096461
0.0826575
0.0696544
0.0574219
0.0459307
0.0351522
0.0250588
0.015624
0.00682201
-0.00137151
-0.00897992
-0.0160253
-0.0225282
-0.028508
-0.0339823
-0.0389669
-0.0434763
-0.0475228
-0.0511171
-0.0542679
-0.0569821
-0.0592646
-0.0611184
-0.0625448
-0.0635431
-0.0641111
-0.0642448
-0.0639388
-0.0631863
-0.0619792
-0.0603083
-0.0581636
-0.0555343
-0.0524089
-0.0487756
-0.0446226
-0.0399382
-0.0347106
-0.0289291
-0.0225835
-0.0156645
-0.00816425
-7.63099e-05
0.00860404
0.0178795
0.0277506
0.0382155
0.0492695
0.0609052
0.073112
0.0858763
0.099181
0.113005
0.127325
0.142113
0.157336
0.17296
0.188945
0.205247
0.22182
0.238614
0.255574
0.272644
0.289762
0.306867
0.323894
0.340773
0.357437
0.373815
0.389835
0.405426
0.420517
0.435036
0.448915
0.462084
0.47448
0.486039
0.496703
0.506417
0.51513
0.522798
0.52938
0.534844
0.539161
0.542311
0.54428
0.545062
0.544657
0.543074
0.540328
0.536441
0.531443
0.52537
0.518265
0.510178
0.501164
0.491282
0.480598
0.469181
0.457103
0.444438
0.431265
0.417663
0.403711
0.38949
0.375079
0.360557
0.345999
0.331482
0.317078
0.302854
0.288878
0.275209
0.261906
0.249022
0.236602
0.224683
0.213353
0.20269
0.192023
0.180717
0.233519
0.207623
0.185936
0.16692
0.148749
0.131492
0.115238
0.0999401
0.08555
0.0720305
0.0593452
0.0474579
0.0363333
0.0259376
0.016238
0.00720288
-0.00119764
-0.00899214
-0.0162075
-0.0228688
-0.0289994
-0.0346206
-0.0397519
-0.0444104
-0.0486114
-0.0523677
-0.0556902
-0.0585874
-0.0610658
-0.0631293
-0.0647803
-0.0660186
-0.0668423
-0.0672476
-0.0672291
-0.0667795
-0.0658904
-0.0645518
-0.0627529
-0.0604819
-0.0577261
-0.0544725
-0.0507079
-0.0464188
-0.0415923
-0.0362155
-0.0302766
-0.0237644
-0.0166692
-0.00898255
-0.000697788
0.0081898
0.0176827
0.027781
0.038482
0.0497801
0.0616667
0.0741299
0.0871541
0.10072
0.114806
0.129384
0.144425
0.159893
0.17575
0.191954
0.208457
0.225211
0.242161
0.25925
0.276418
0.2936
0.310731
0.327742
0.344563
0.361122
0.377345
0.39316
0.408492
0.423269
0.437419
0.450871
0.463557
0.475412
0.486374
0.496386
0.505393
0.513348
0.520208
0.525936
0.530502
0.533882
0.536061
0.537028
0.536782
0.535328
0.532681
0.528859
0.523893
0.517815
0.510668
0.5025
0.493365
0.483322
0.472437
0.460777
0.448415
0.435427
0.421889
0.407881
0.393484
0.378778
0.363845
0.348761
0.333607
0.318457
0.303384
0.288458
0.273746
0.259311
0.245211
0.2315
0.218223
0.205421
0.193186
0.181603
0.169925
0.157449
0.242731
0.215359
0.192478
0.172462
0.153376
0.135289
0.118293
0.102333
0.087356
0.0733167
0.0601724
0.0478805
0.0363994
0.0256888
0.0157101
0.00642607
-0.0021986
-0.0101975
-0.0176021
-0.0244419
-0.0307442
-0.0365339
-0.0418336
-0.0466635
-0.0510413
-0.0549822
-0.0584989
-0.0616015
-0.0642978
-0.066593
-0.06849
-0.0699894
-0.0710894
-0.0717864
-0.0720746
-0.0719467
-0.0713935
-0.0704044
-0.0689675
-0.0670701
-0.0646982
-0.0618376
-0.0584734
-0.0545908
-0.0501749
-0.0452113
-0.0396861
-0.0335864
-0.0269003
-0.0196176
-0.0117293
-0.0032289
0.0058883
0.0156243
0.0259785
0.0369473
0.0485238
0.060698
0.0734563
0.086781
0.100651
0.115041
0.129922
0.14526
0.161018
0.177153
0.19362
0.210369
0.227346
0.244494
0.261751
0.279055
0.296336
0.313527
0.330555
0.347346
0.363825
0.379918
0.395548
0.410639
0.425117
0.438909
0.451943
0.464152
0.47547
0.485836
0.495193
0.50349
0.51068
0.516724
0.521589
0.525246
0.527678
0.528871
0.528821
0.527531
0.525012
0.521282
0.516368
0.510302
0.503126
0.494885
0.485633
0.475428
0.464335
0.452423
0.439764
0.426432
0.412507
0.398068
0.383197
0.367974
0.352483
0.336802
0.321012
0.305188
0.289407
0.273738
0.258252
0.24301
0.228075
0.213502
0.199337
0.185622
0.172458
0.159935
0.147231
0.133579
0.250654
0.221837
0.197786
0.176787
0.1568
0.137894
0.120163
0.103546
0.0879831
0.0734228
0.059816
0.0471135
0.0352675
0.0242319
0.013962
0.0044154
-0.00444864
-0.0126685
-0.0202801
-0.0273172
-0.0338108
-0.0397894
-0.0452785
-0.0503012
-0.0548776
-0.0590251
-0.0627581
-0.0660884
-0.0690249
-0.0715739
-0.0737388
-0.0755207
-0.0769183
-0.0779276
-0.0785429
-0.0787563
-0.0785579
-0.0779365
-0.0768791
-0.0753719
-0.0733998
-0.0709469
-0.0679969
-0.0645334
-0.0605397
-0.0559995
-0.0508971
-0.0452174
-0.0389468
-0.0320725
-0.024584
-0.0164722
-0.00773047
0.0016453
0.0116566
0.0223017
0.033576
0.0454712
0.0579754
0.0710728
0.0847438
0.0989645
0.113707
0.128938
0.144622
0.160718
0.177179
0.193956
0.210996
0.228241
0.24563
0.263097
0.280575
0.297993
0.315276
0.332351
0.349141
0.365566
0.38155
0.397013
0.411878
0.426069
0.439512
0.452135
0.463869
0.47465
0.484416
0.493113
0.500692
0.507107
0.512323
0.516309
0.519042
0.520506
0.520694
0.519606
0.517251
0.513644
0.508809
0.502778
0.49559
0.487289
0.477929
0.467566
0.456265
0.444094
0.431127
0.417438
0.403108
0.388215
0.372844
0.357076
0.340995
0.324682
0.30822
0.291686
0.275158
0.258708
0.242408
0.226323
0.210517