/*--------------------------------*- C++ -*----------------------------------*\
  =========                 |
  \\      /  F ield         | OpenFOAM: The Open Source CFD Toolbox
   \\    /   O peration     | Website:  https://openfoam.org
    \\  /    A nd           | Version:  9
     \\/     M anipulation  |
\*---------------------------------------------------------------------------*/
FoamFile
{
    format      ascii;
    class       surfaceScalarField;
    location    "0.6";
    object      phi;
}
// * * * * * * * * * * * * * * * * * * * * * * * * * * * * * * * * * * * * * //

dimensions      [0 3 -1 0 0 0 0];

internalField   nonuniform List<scalar> 
32512
(
2.63338e-10
-2.87997e-10
1.09641e-09
-8.3308e-10
2.1276e-09
-1.0312e-09
3.08235e-09
-9.54761e-10
3.7897e-09
-7.07356e-10
4.1464e-09
-3.56706e-10
4.09323e-09
5.31728e-11
3.60016e-09
4.93077e-10
2.65644e-09
9.4373e-10
1.26408e-09
1.39236e-09
-5.6632e-10
1.83041e-09
-2.81848e-09
2.25217e-09
-5.47233e-09
2.65386e-09
-8.5054e-09
3.03308e-09
-1.18938e-08
3.38839e-09
-1.56129e-08
3.71911e-09
-1.96379e-08
4.02502e-09
-2.39442e-08
4.30633e-09
-2.85077e-08
4.56351e-09
-3.33049e-08
4.79721e-09
-3.83132e-08
5.00822e-09
-4.35106e-08
5.19742e-09
-4.88763e-08
5.36573e-09
-5.43904e-08
5.51409e-09
-6.00338e-08
5.64342e-09
-6.57884e-08
5.75462e-09
-7.1637e-08
5.84854e-09
-7.7563e-08
5.926e-09
-8.35507e-08
5.98772e-09
-8.95851e-08
6.03439e-09
-9.56517e-08
6.06661e-09
-1.01737e-07
6.08492e-09
-1.07826e-07
6.08977e-09
-1.13908e-07
6.08157e-09
-1.19969e-07
6.06063e-09
-1.25996e-07
6.02721e-09
-1.31977e-07
5.98151e-09
-1.37901e-07
5.92368e-09
-1.43755e-07
5.85381e-09
-1.49527e-07
5.77194e-09
-1.55205e-07
5.6781e-09
-1.60777e-07
5.57226e-09
-1.66232e-07
5.45439e-09
-1.71556e-07
5.32442e-09
-1.76738e-07
5.18229e-09
-1.81766e-07
5.02793e-09
-1.86628e-07
4.86127e-09
-1.9131e-07
4.68226e-09
-1.95801e-07
4.49087e-09
-2.00088e-07
4.28708e-09
-2.04159e-07
4.07091e-09
-2.08001e-07
3.84242e-09
-2.11603e-07
3.60173e-09
-2.14952e-07
3.34897e-09
-2.18036e-07
3.08436e-09
-2.20844e-07
2.80815e-09
-2.23365e-07
2.52067e-09
-2.25587e-07
2.22233e-09
-2.27501e-07
1.91356e-09
-2.29096e-07
1.59493e-09
-2.30363e-07
1.26702e-09
-2.31294e-07
9.30535e-10
-2.3188e-07
5.86231e-10
-2.32115e-07
2.34948e-10
-2.31992e-07
-1.22396e-10
-2.31508e-07
-4.8481e-10
-2.30656e-07
-8.51228e-10
-2.29436e-07
-1.22051e-09
-2.27844e-07
-1.59146e-09
-2.25882e-07
-1.96281e-09
-2.23548e-07
-2.33322e-09
-2.20847e-07
-2.70132e-09
-2.17781e-07
-3.06568e-09
-2.14357e-07
-3.42484e-09
-2.10579e-07
-3.7773e-09
-2.06458e-07
-4.12152e-09
-2.02002e-07
-4.45599e-09
-1.97223e-07
-4.77914e-09
-1.92133e-07
-5.08944e-09
-1.86748e-07
-5.38536e-09
-1.81082e-07
-5.6654e-09
-1.75154e-07
-5.9281e-09
-1.68982e-07
-6.17202e-09
-1.62586e-07
-6.3958e-09
-1.55988e-07
-6.59814e-09
-1.4921e-07
-6.77783e-09
-1.42277e-07
-6.93372e-09
-1.35212e-07
-7.06479e-09
-1.28042e-07
-7.1701e-09
-1.20793e-07
-7.24884e-09
-1.13493e-07
-7.30033e-09
-1.06169e-07
-7.32399e-09
-9.88492e-08
-7.31942e-09
-9.15629e-08
-7.28632e-09
-8.43383e-08
-7.22458e-09
-7.72041e-08
-7.13421e-09
-7.01887e-08
-7.01538e-09
-6.33203e-08
-6.86842e-09
-5.66264e-08
-6.69383e-09
-5.01342e-08
-6.49223e-09
-4.38698e-08
-6.26443e-09
-3.78584e-08
-6.01138e-09
-3.21242e-08
-5.73418e-09
-2.66901e-08
-5.43409e-09
-2.15776e-08
-5.11253e-09
-1.68066e-08
-4.77105e-09
-1.23952e-08
-4.41139e-09
-8.35977e-09
-4.03541e-09
-4.71461e-09
-3.64516e-09
-1.47174e-09
-3.24287e-09
1.35922e-09
-2.83096e-09
3.77129e-09
-2.41208e-09
5.76043e-09
-1.98915e-09
7.32581e-09
-1.5654e-09
8.47027e-09
-1.14446e-09
9.20078e-09
-7.30505e-10
9.52911e-09
-3.28332e-10
9.47272e-09
5.6372e-11
9.05594e-09
4.16742e-10
8.31165e-09
7.44273e-10
7.28354e-09
1.02814e-09
6.02938e-09
1.25423e-09
4.62558e-09
1.40382e-09
3.17321e-09
1.45222e-09
1.80499e-09
1.36801e-09
6.93102e-10
1.11196e-09
4.8924e-11
6.44913e-10
4.99617e-11
8.21347e-10
-1.10934e-09
2.45525e-09
-2.46697e-09
4.2882e-09
-2.86414e-09
5.83844e-09
-2.505e-09
6.74991e-09
-1.61883e-09
6.77764e-09
-3.84436e-10
5.76383e-09
1.06699e-09
3.6158e-09
2.64112e-09
2.8857e-10
4.27098e-09
-4.22824e-09
5.90919e-09
-9.92015e-09
7.52233e-09
-1.67549e-08
9.08692e-09
-2.46877e-08
1.05867e-08
-3.36652e-08
1.20106e-08
-4.36284e-08
1.33516e-08
-5.45148e-08
1.46055e-08
-6.626e-08
1.57702e-08
-7.87989e-08
1.68453e-08
-9.20669e-08
1.78315e-08
-1.06e-07
1.87306e-08
-1.20537e-07
1.95448e-08
-1.35616e-07
2.02769e-08
-1.5118e-07
2.09297e-08
-1.67173e-07
2.15064e-08
-1.83539e-07
2.20101e-08
-2.00229e-07
2.24439e-08
-2.17191e-07
2.28107e-08
-2.34378e-07
2.31135e-08
-2.51746e-07
2.33549e-08
-2.69248e-07
2.35373e-08
-2.86845e-07
2.36629e-08
-3.04493e-07
2.37336e-08
-3.22155e-07
2.37512e-08
-3.3979e-07
2.37171e-08
-3.57362e-07
2.36325e-08
-3.74834e-07
2.34985e-08
-3.92168e-07
2.33158e-08
-4.09329e-07
2.30851e-08
-4.26282e-07
2.28067e-08
-4.42991e-07
2.24808e-08
-4.59421e-07
2.21077e-08
-4.75536e-07
2.16873e-08
-4.91301e-07
2.12196e-08
-5.06681e-07
2.07044e-08
-5.2164e-07
2.01416e-08
-5.36143e-07
1.9531e-08
-5.50155e-07
1.88725e-08
-5.63639e-07
1.81661e-08
-5.76559e-07
1.74116e-08
-5.88881e-07
1.66092e-08
-6.0057e-07
1.5759e-08
-6.11589e-07
1.48615e-08
-6.21904e-07
1.39171e-08
-6.31482e-07
1.29266e-08
-6.40288e-07
1.18907e-08
-6.48291e-07
1.08108e-08
-6.55458e-07
9.68796e-09
-6.6176e-07
8.52399e-09
-6.67167e-07
7.32069e-09
-6.71652e-07
6.08021e-09
-6.7519e-07
4.80497e-09
-6.77757e-07
3.49767e-09
-6.79332e-07
2.1613e-09
-6.79897e-07
7.99138e-10
-6.79434e-07
-5.85254e-10
-6.77931e-07
-1.98804e-09
-6.75377e-07
-3.4051e-09
-6.71765e-07
-4.83207e-09
-6.67092e-07
-6.26433e-09
-6.61358e-07
-7.69702e-09
-6.54566e-07
-9.12507e-09
-6.46724e-07
-1.05432e-08
-6.37844e-07
-1.1946e-08
-6.27941e-07
-1.3328e-08
-6.17035e-07
-1.46833e-08
-6.0515e-07
-1.60062e-08
-5.92315e-07
-1.7291e-08
-5.78562e-07
-1.85317e-08
-5.63929e-07
-1.97226e-08
-5.48457e-07
-2.08579e-08
-5.3219e-07
-2.1932e-08
-5.15179e-07
-2.29392e-08
-4.97477e-07
-2.38743e-08
-4.7914e-07
-2.47322e-08
-4.6023e-07
-2.55079e-08
-4.40811e-07
-2.61969e-08
-4.2095e-07
-2.67949e-08
-4.00717e-07
-2.72981e-08
-3.80184e-07
-2.77031e-08
-3.59426e-07
-2.80066e-08
-3.3852e-07
-2.82063e-08
-3.17544e-07
-2.83001e-08
-2.96577e-07
-2.82863e-08
-2.75699e-07
-2.8164e-08
-2.54991e-07
-2.79327e-08
-2.34533e-07
-2.75926e-08
-2.14404e-07
-2.71443e-08
-1.94683e-07
-2.65891e-08
-1.75448e-07
-2.5929e-08
-1.56774e-07
-2.51664e-08
-1.38734e-07
-2.43044e-08
-1.21399e-07
-2.33467e-08
-1.04835e-07
-2.22975e-08
-8.91075e-08
-2.11618e-08
-7.4275e-08
-1.99451e-08
-6.03927e-08
-1.86533e-08
-4.75108e-08
-1.72933e-08
-3.5674e-08
-1.58723e-08
-2.49209e-08
-1.43983e-08
-1.52837e-08
-1.28801e-08
-6.78746e-09
-1.13272e-08
5.50419e-10
-9.74996e-09
6.72123e-09
-8.15996e-09
1.17257e-08
-6.56988e-09
1.55752e-08
-4.99401e-09
1.82932e-08
-3.4485e-09
1.99169e-08
-1.95197e-09
2.04994e-08
-5.26136e-10
2.01129e-08
8.03262e-10
1.88519e-08
2.00521e-09
1.68382e-08
3.04174e-09
1.42266e-08
3.86585e-09
1.12116e-08
4.41908e-09
8.03384e-09
4.63016e-09
4.98462e-09
4.41685e-09
2.40182e-09
3.69355e-09
6.41711e-10
2.4036e-09
6.92186e-10
1.03057e-09
-2.13992e-09
2.86664e-09
-4.30303e-09
4.7144e-09
-4.7119e-09
5.985e-09
-3.7756e-09
6.23011e-09
-1.86395e-09
5.1248e-09
7.2088e-10
2.44726e-09
3.74452e-09
-1.94188e-09
7.03026e-09
-8.11767e-09
1.04468e-08
-1.61058e-08
1.38974e-08
-2.58948e-08
1.73113e-08
-3.7445e-08
2.06371e-08
-5.06966e-08
2.38383e-08
-6.55749e-08
2.6889e-08
-8.19951e-08
2.97718e-08
-9.98654e-08
3.24758e-08
-1.1909e-07
3.49947e-08
-1.39571e-07
3.7326e-08
-1.61209e-07
3.94699e-08
-1.83907e-07
4.14287e-08
-2.07569e-07
4.32062e-08
-2.32099e-07
4.48073e-08
-2.57407e-07
4.62375e-08
-2.83403e-07
4.75028e-08
-3.10002e-07
4.86093e-08
-3.37122e-07
4.95631e-08
-3.64681e-07
5.03704e-08
-3.92605e-07
5.10369e-08
-4.20818e-07
5.15679e-08
-4.49249e-07
5.19685e-08
-4.77829e-07
5.22433e-08
-5.06492e-07
5.23963e-08
-5.35172e-07
5.24312e-08
-5.63806e-07
5.2351e-08
-5.92332e-07
5.21584e-08
-6.20689e-07
5.18555e-08
-6.48817e-07
5.14441e-08
-6.76658e-07
5.09255e-08
-7.04152e-07
5.03007e-08
-7.31241e-07
4.95703e-08
-7.57868e-07
4.87347e-08
-7.83975e-07
4.77941e-08
-8.09504e-07
4.67484e-08
-8.34397e-07
4.55977e-08
-8.58597e-07
4.43416e-08
-8.82046e-07
4.29801e-08
-9.04687e-07
4.15129e-08
-9.26461e-07
3.99402e-08
-9.47311e-07
3.82621e-08
-9.67181e-07
3.64788e-08
-9.86013e-07
3.45912e-08
-1.00375e-06
3.26e-08
-1.02034e-06
3.05067e-08
-1.03573e-06
2.83129e-08
-1.04986e-06
2.60207e-08
-1.06268e-06
2.36329e-08
-1.07414e-06
2.11524e-08
-1.0842e-06
1.85831e-08
-1.09281e-06
1.5929e-08
-1.09993e-06
1.3195e-08
-1.10551e-06
1.03866e-08
-1.10952e-06
7.5097e-09
-1.11193e-06
4.57092e-09
-1.11271e-06
1.57751e-09
-1.11183e-06
-1.4627e-09
-1.10928e-06
-4.5413e-09
-1.10503e-06
-7.64928e-09
-1.09909e-06
-1.07771e-08
-1.09144e-06
-1.39147e-08
-1.08208e-06
-1.70514e-08
-1.07103e-06
-2.01764e-08
-1.0583e-06
-2.32781e-08
-1.0439e-06
-2.63449e-08
-1.02786e-06
-2.93645e-08
-1.01022e-06
-3.23249e-08
-9.91013e-07
-3.52134e-08
-9.70287e-07
-3.80176e-08
-9.48094e-07
-4.07248e-08
-9.24494e-07
-4.33225e-08
-8.99553e-07
-4.57984e-08
-8.73345e-07
-4.81403e-08
-8.45948e-07
-5.03363e-08
-8.17447e-07
-5.23749e-08
-7.87934e-07
-5.42451e-08
-7.57505e-07
-5.59366e-08
-7.26263e-07
-5.74394e-08
-6.94313e-07
-5.87446e-08
-6.61768e-07
-5.98438e-08
-6.28741e-07
-6.07296e-08
-5.95352e-07
-6.13956e-08
-5.61722e-07
-6.18363e-08
-5.27975e-07
-6.20473e-08
-4.94236e-07
-6.20253e-08
-4.60632e-07
-6.17682e-08
-4.27289e-07
-6.12751e-08
-3.94335e-07
-6.05464e-08
-3.61896e-07
-5.95836e-08
-3.30095e-07
-5.83896e-08
-2.99056e-07
-5.69686e-08
-2.68896e-07
-5.53259e-08
-2.39732e-07
-5.34685e-08
-2.11675e-07
-5.14043e-08
-1.84829e-07
-4.91428e-08
-1.59297e-07
-4.66946e-08
-1.3517e-07
-4.40718e-08
-1.12536e-07
-4.12877e-08
-9.14717e-08
-3.83571e-08
-7.20479e-08
-3.5296e-08
-5.4324e-08
-3.21223e-08
-3.8349e-08
-2.8855e-08
-2.4161e-08
-2.55152e-08
-1.17851e-08
-2.21259e-08
-1.23263e-09
-1.87124e-08
7.50016e-09
-1.53027e-08
1.44341e-08
-1.1928e-08
1.9609e-08
-8.62341e-09
2.30861e-08
-5.42913e-09
2.49514e-08
-2.39136e-09
2.53187e-08
4.35948e-10
2.43347e-08
2.98917e-09
2.21837e-08
5.19262e-09
1.90935e-08
6.95589e-09
1.53413e-08
8.1714e-09
1.12579e-08
8.71407e-09
7.22921e-09
8.44637e-09
3.68961e-09
7.23336e-09
1.10723e-09
4.98503e-09
1.79937e-09
9.62953e-10
-3.10289e-09
2.52473e-09
-5.86482e-09
3.80097e-09
-5.98814e-09
4.14451e-09
-4.11915e-09
3.06249e-09
-7.81936e-10
1.90176e-10
3.59319e-09
-4.7291e-09
8.6638e-09
-1.18628e-08
1.4164e-08
-2.13062e-08
1.98901e-08
-3.30964e-08
2.56876e-08
-4.72254e-08
3.14403e-08
-6.36499e-08
3.70616e-08
-8.22999e-08
4.24883e-08
-1.03085e-07
4.76746e-08
-1.25902e-07
5.25886e-08
-1.50636e-07
5.72093e-08
-1.77165e-07
6.15238e-08
-2.05364e-07
6.55255e-08
-2.35108e-07
6.9213e-08
-2.66267e-07
7.25883e-08
-2.98717e-07
7.56564e-08
-3.32334e-07
7.84241e-08
-3.66996e-07
8.08997e-08
-4.02586e-07
8.30923e-08
-4.38988e-07
8.50116e-08
-4.76092e-07
8.66672e-08
-5.1379e-07
8.80689e-08
-5.51979e-07
8.92258e-08
-5.90558e-07
9.01468e-08
-6.2943e-07
9.08401e-08
-6.685e-07
9.13133e-08
-7.07677e-07
9.1573e-08
-7.46871e-07
9.16253e-08
-7.85995e-07
9.14754e-08
-8.24965e-07
9.11278e-08
-8.63695e-07
9.0586e-08
-9.02104e-07
8.98532e-08
-9.40111e-07
8.89318e-08
-9.77633e-07
8.78233e-08
-1.01459e-06
8.65292e-08
-1.05091e-06
8.50502e-08
-1.0865e-06
8.33869e-08
-1.12129e-06
8.15394e-08
-1.1552e-06
7.95077e-08
-1.18815e-06
7.72919e-08
-1.22006e-06
7.48918e-08
-1.25086e-06
7.23076e-08
-1.28046e-06
6.95395e-08
-1.30878e-06
6.65881e-08
-1.33576e-06
6.34543e-08
-1.36131e-06
6.01395e-08
-1.38535e-06
5.66457e-08
-1.40782e-06
5.29753e-08
-1.42864e-06
4.91316e-08
-1.44774e-06
4.51186e-08
-1.46505e-06
4.0941e-08
-1.4805e-06
3.66047e-08
-1.49403e-06
3.2116e-08
-1.50559e-06
2.74826e-08
-1.5151e-06
2.2713e-08
-1.52253e-06
1.78166e-08
-1.52783e-06
1.28041e-08
-1.53094e-06
7.68704e-09
-1.53184e-06
2.478e-09
-1.5305e-06
-2.80938e-09
-1.52688e-06
-8.16048e-09
-1.52097e-06
-1.35597e-08
-1.51275e-06
-1.89905e-08
-1.50223e-06
-2.44355e-08
-1.48941e-06
-2.98766e-08
-1.47429e-06
-3.52946e-08
-1.4569e-06
-4.06701e-08
-1.43726e-06
-4.59828e-08
-1.41541e-06
-5.1212e-08
-1.3914e-06
-5.63366e-08
-1.36528e-06
-6.13353e-08
-1.33711e-06
-6.61867e-08
-1.30697e-06
-7.08692e-08
-1.27493e-06
-7.53614e-08
-1.24108e-06
-7.96422e-08
-1.20553e-06
-8.36909e-08
-1.16838e-06
-8.74872e-08
-1.12974e-06
-9.10116e-08
-1.08974e-06
-9.42453e-08
-1.04851e-06
-9.71705e-08
-1.00618e-06
-9.97707e-08
-9.62894e-07
-1.0203e-07
-9.18802e-07
-1.03935e-07
-8.74058e-07
-1.05473e-07
-8.28821e-07
-1.06633e-07
-7.83252e-07
-1.07406e-07
-7.37516e-07
-1.07783e-07
-6.9178e-07
-1.07761e-07
-6.46215e-07
-1.07334e-07
-6.00987e-07
-1.06502e-07
-5.56267e-07
-1.05266e-07
-5.12223e-07
-1.03628e-07
-4.69019e-07
-1.01593e-07
-4.26819e-07
-9.9169e-08
-3.8578e-07
-9.63647e-08
-3.46056e-07
-9.31921e-08
-3.07795e-07
-8.96652e-08
-2.71138e-07
-8.58003e-08
-2.36216e-07
-8.1616e-08
-2.03155e-07
-7.71331e-08
-1.72068e-07
-7.23747e-08
-1.43059e-07
-6.73666e-08
-1.16218e-07
-6.21367e-08
-9.16243e-08
-5.67158e-08
-6.93421e-08
-5.11372e-08
-4.94197e-08
-4.54376e-08
-3.18887e-08
-3.96568e-08
-1.67624e-08
-3.38387e-08
-4.03349e-09
-2.80316e-08
6.32766e-09
-2.22891e-08
1.43756e-08
-1.66713e-08
2.01924e-08
-1.1246e-08
2.38915e-08
-6.09049e-09
2.56211e-08
-1.29354e-09
2.55684e-08
3.04192e-09
2.39649e-08
6.79616e-09
2.10906e-08
9.82992e-09
1.72792e-08
1.19824e-08
1.2921e-08
1.3072e-08
8.46562e-09
1.29021e-08
4.42192e-09
1.12777e-08
1.36447e-09
8.04226e-09
3.16366e-09
7.2258e-10
-3.82547e-09
1.65044e-09
-6.79269e-09
1.89908e-09
-6.23679e-09
8.09596e-10
-3.02968e-09
-2.12189e-09
2.14954e-09
-7.2723e-09
8.74359e-09
-1.49113e-08
1.63028e-08
-2.52183e-08
2.44711e-08
-3.8298e-08
3.29698e-08
-5.4193e-08
4.15826e-08
-7.28962e-08
5.01435e-08
-9.43608e-08
5.85262e-08
-1.18509e-07
6.66362e-08
-1.45238e-07
7.4404e-08
-1.74429e-07
8.17797e-08
-2.05949e-07
8.87293e-08
-2.39656e-07
9.52308e-08
-2.75403e-07
1.01272e-07
-3.13038e-07
1.06848e-07
-3.5241e-07
1.1196e-07
-3.93367e-07
1.16614e-07
-4.3576e-07
1.20817e-07
-4.79441e-07
1.24581e-07
-5.24266e-07
1.27917e-07
-5.70094e-07
1.3084e-07
-6.16789e-07
1.33362e-07
-6.64218e-07
1.35497e-07
-7.12251e-07
1.37259e-07
-7.60764e-07
1.3866e-07
-8.09634e-07
1.39711e-07
-8.58745e-07
1.40424e-07
-9.0798e-07
1.40808e-07
-9.57228e-07
1.40873e-07
-1.00638e-06
1.40626e-07
-1.05532e-06
1.40073e-07
-1.10396e-06
1.3922e-07
-1.15218e-06
1.38072e-07
-1.19988e-06
1.36632e-07
-1.24696e-06
1.34904e-07
-1.29332e-06
1.32888e-07
-1.33885e-06
1.30587e-07
-1.38347e-06
1.28002e-07
-1.42706e-06
1.25132e-07
-1.46953e-06
1.2198e-07
-1.51079e-06
1.18544e-07
-1.55072e-06
1.14825e-07
-1.58923e-06
1.10824e-07
-1.62624e-06
1.06541e-07
-1.66163e-06
1.01977e-07
-1.69531e-06
9.71356e-08
-1.72718e-06
9.20178e-08
-1.75717e-06
8.66272e-08
-1.78516e-06
8.09682e-08
-1.81107e-06
7.50461e-08
-1.83482e-06
6.88674e-08
-1.85632e-06
6.24396e-08
-1.87549e-06
5.57718e-08
-1.89225e-06
4.88743e-08
-1.90652e-06
4.17589e-08
-1.91825e-06
3.44389e-08
-1.92736e-06
2.69289e-08
-1.9338e-06
1.92452e-08
-1.93752e-06
1.14057e-08
-1.93847e-06
3.42978e-09
-1.93662e-06
-4.66181e-09
-1.93193e-06
-1.28467e-08
-1.92439e-06
-2.11011e-08
-1.91398e-06
-2.93998e-08
-1.9007e-06
-3.77166e-08
-1.88456e-06
-4.60236e-08
-1.86556e-06
-5.42922e-08
-1.84374e-06
-6.24927e-08
-1.81912e-06
-7.05945e-08
-1.79177e-06
-7.85664e-08
-1.76173e-06
-8.63766e-08
-1.72907e-06
-9.39929e-08
-1.69388e-06
-1.01383e-07
-1.65623e-06
-1.08514e-07
-1.61624e-06
-1.15355e-07
-1.57401e-06
-1.21873e-07
-1.52966e-06
-1.28037e-07
-1.48333e-06
-1.33817e-07
-1.43516e-06
-1.39184e-07
-1.3853e-06
-1.44108e-07
-1.3339e-06
-1.48565e-07
-1.28114e-06
-1.52529e-07
-1.2272e-06
-1.55976e-07
-1.17225e-06
-1.58886e-07
-1.11648e-06
-1.61239e-07
-1.06009e-06
-1.6302e-07
-1.00328e-06
-1.64215e-07
-9.46255e-07
-1.64812e-07
-8.89212e-07
-1.64804e-07
-8.32361e-07
-1.64185e-07
-7.75911e-07
-1.62953e-07
-7.20067e-07
-1.61109e-07
-6.65037e-07
-1.58658e-07
-6.11023e-07
-1.55608e-07
-5.58223e-07
-1.51969e-07
-5.06832e-07
-1.47756e-07
-4.57037e-07
-1.42986e-07
-4.0902e-07
-1.37682e-07
-3.62952e-07
-1.31868e-07
-3.18996e-07
-1.25572e-07
-2.77303e-07
-1.18826e-07
-2.38012e-07
-1.11666e-07
-2.01249e-07
-1.0413e-07
-1.67124e-07
-9.62611e-08
-1.35734e-07
-8.81064e-08
-1.07154e-07
-7.97169e-08
-8.14436e-08
-7.1148e-08
-5.86397e-08
-6.24607e-08
-3.87572e-08
-5.37213e-08
-2.1786e-08
-4.50028e-08
-7.68925e-09
-3.63859e-08
3.59968e-09
-2.79603e-08
1.21799e-08
-1.98263e-08
1.81865e-08
-1.20971e-08
2.17937e-08
-4.90086e-09
2.32197e-08
1.61598e-09
2.27299e-08
7.28616e-09
2.06413e-08
1.19187e-08
1.73261e-08
1.52975e-08
1.32162e-08
1.71816e-08
8.80723e-09
1.73108e-08
4.66725e-09
1.54181e-08
1.45572e-09
1.1254e-08
4.61931e-09
3.75062e-10
-4.20054e-09
4.13117e-10
-6.83076e-09
-7.09347e-10
-5.11433e-09
-3.62331e-09
-1.1572e-10
-8.81619e-09
7.34241e-09
-1.66556e-08
1.6583e-08
-2.74069e-08
2.7054e-08
-4.12479e-08
3.83121e-08
-5.82825e-08
5.00043e-08
-7.85521e-08
6.18522e-08
-1.02047e-07
7.36379e-08
-1.28714e-07
8.51933e-08
-1.58467e-07
9.63898e-08
-1.91195e-07
1.07132e-07
-2.26763e-07
1.17348e-07
-2.65025e-07
1.26991e-07
-3.0582e-07
1.36026e-07
-3.48982e-07
1.44434e-07
-3.9434e-07
1.52206e-07
-4.4172e-07
1.59341e-07
-4.90949e-07
1.65843e-07
-5.41855e-07
1.71722e-07
-5.94266e-07
1.76992e-07
-6.48015e-07
1.81666e-07
-7.02939e-07
1.85763e-07
-7.58876e-07
1.89299e-07
-8.15671e-07
1.92292e-07
-8.73172e-07
1.9476e-07
-9.31231e-07
1.96718e-07
-9.89703e-07
1.98183e-07
-1.04845e-06
1.99169e-07
-1.10733e-06
1.99689e-07
-1.16621e-06
1.99755e-07
-1.22496e-06
1.99378e-07
-1.28346e-06
1.98567e-07
-1.34156e-06
1.97328e-07
-1.39916e-06
1.9567e-07
-1.45613e-06
1.93596e-07
-1.51233e-06
1.9111e-07
-1.56766e-06
1.88217e-07
-1.62199e-06
1.84918e-07
-1.6752e-06
1.81214e-07
-1.72718e-06
1.77107e-07
-1.7778e-06
1.72599e-07
-1.82694e-06
1.67689e-07
-1.8745e-06
1.62378e-07
-1.92034e-06
1.56668e-07
-1.96436e-06
1.50561e-07
-2.00644e-06
1.44058e-07
-2.04647e-06
1.37163e-07
-2.08433e-06
1.29879e-07
-2.11992e-06
1.22213e-07
-2.15312e-06
1.1417e-07
-2.18383e-06
1.05758e-07
-2.21195e-06
9.69873e-08
-2.23738e-06
8.78689e-08
-2.26002e-06
7.84158e-08
-2.27979e-06
6.86429e-08
-2.2966e-06
5.85672e-08
-2.31037e-06
4.82076e-08
-2.32102e-06
3.75851e-08
-2.3285e-06
2.67229e-08
-2.33274e-06
1.56463e-08
-2.3337e-06
4.38257e-09
-2.33132e-06
-7.03884e-09
-2.32558e-06
-1.85865e-08
-2.31645e-06
-3.02269e-08
-2.30393e-06
-4.19249e-08
-2.288e-06
-5.36434e-08
-2.26868e-06
-6.53437e-08
-2.24599e-06
-7.69856e-08
-2.21995e-06
-8.85277e-08
-2.19062e-06
-9.99274e-08
-2.15804e-06
-1.11141e-07
-2.1223e-06
-1.22124e-07
-2.08346e-06
-1.32833e-07
-2.04162e-06
-1.43221e-07
-1.99689e-06
-1.53244e-07
-1.94939e-06
-1.62857e-07
-1.89924e-06
-1.72017e-07
-1.8466e-06
-1.8068e-07
-1.79161e-06
-1.88803e-07
-1.73445e-06
-1.96346e-07
-1.67529e-06
-2.03271e-07
-1.61431e-06
-2.0954e-07
-1.55172e-06
-2.15118e-07
-1.48773e-06
-2.19975e-07
-1.42253e-06
-2.2408e-07
-1.35636e-06
-2.27408e-07
-1.28945e-06
-2.29935e-07
-1.22202e-06
-2.31644e-07
-1.15431e-06
-2.32519e-07
-1.08657e-06
-2.32548e-07
-1.01903e-06
-2.31724e-07
-9.51936e-07
-2.30046e-07
-8.85532e-07
-2.27514e-07
-8.20056e-07
-2.24134e-07
-7.55746e-07
-2.19918e-07
-6.92833e-07
-2.14882e-07
-6.31544e-07
-2.09045e-07
-5.72099e-07
-2.02432e-07
-5.14707e-07
-1.95074e-07
-4.5957e-07
-1.87006e-07
-4.06876e-07
-1.78266e-07
-3.56801e-07
-1.689e-07
-3.09509e-07
-1.58958e-07
-2.65145e-07
-1.48494e-07
-2.23837e-07
-1.37569e-07
-1.85697e-07
-1.26247e-07
-1.50812e-07
-1.14601e-07
-1.19252e-07
-1.02709e-07
-9.1058e-08
-9.06546e-08
-6.62475e-08
-7.85317e-08
-4.48091e-08
-6.64412e-08
-2.67004e-08
-5.44946e-08
-1.18459e-08
-4.28148e-08
-1.33791e-10
-3.15384e-08
8.58704e-09
-2.08179e-08
1.45103e-08
-1.08242e-08
1.78757e-08
-1.74955e-09
1.89727e-08
6.18915e-09
1.81438e-08
1.27478e-08
1.57881e-08
1.76533e-08
1.23662e-08
2.06034e-08
8.40711e-09
2.12695e-08
4.52111e-09
1.93041e-08
1.42327e-09
1.43519e-08
6.04262e-09
-3.8168e-11
-4.16238e-09
-1.06569e-09
-5.80324e-09
-3.81008e-09
-2.36995e-09
-8.84514e-09
4.91934e-09
-1.66198e-08
1.51171e-08
-2.7475e-08
2.74382e-08
-4.16574e-08
4.12364e-08
-5.93317e-08
5.59863e-08
-8.05917e-08
7.12644e-08
-1.05471e-07
8.67314e-08
-1.33951e-07
1.02118e-07
-1.65972e-07
1.17214e-07
-2.01439e-07
1.31856e-07
-2.40227e-07
1.4592e-07
-2.82193e-07
1.59314e-07
-3.27173e-07
1.71971e-07
-3.74993e-07
1.83846e-07
-4.2547e-07
1.94911e-07
-4.78416e-07
2.05152e-07
-5.33637e-07
2.14562e-07
-5.90941e-07
2.23147e-07
-6.50136e-07
2.30917e-07
-7.11029e-07
2.37885e-07
-7.73432e-07
2.4407e-07
-8.37161e-07
2.49492e-07
-9.02033e-07
2.54172e-07
-9.67872e-07
2.58131e-07
-1.0345e-06
2.61392e-07
-1.10176e-06
2.63974e-07
-1.16947e-06
2.65898e-07
-1.23749e-06
2.67181e-07
-1.30564e-06
2.6784e-07
-1.37377e-06
2.67891e-07
-1.44174e-06
2.67347e-07
-1.5094e-06
2.6622e-07
-1.57659e-06
2.64519e-07
-1.64317e-06
2.62252e-07
-1.709e-06
2.59428e-07
-1.77394e-06
2.5605e-07
-1.83785e-06
2.52124e-07
-1.90058e-06
2.47652e-07
-1.96201e-06
2.42638e-07
-2.02198e-06
2.37083e-07
-2.08037e-06
2.30988e-07
-2.13704e-06
2.24356e-07
-2.19185e-06
2.17189e-07
-2.24467e-06
2.09487e-07
-2.29536e-06
2.01255e-07
-2.3438e-06
1.92495e-07
-2.38985e-06
1.83213e-07
-2.43339e-06
1.73415e-07
-2.47428e-06
1.63107e-07
-2.51241e-06
1.523e-07
-2.54766e-06
1.41004e-07
-2.5799e-06
1.29234e-07
-2.60904e-06
1.17004e-07
-2.63495e-06
1.04332e-07
-2.65755e-06
9.12384e-08
-2.67673e-06
7.77469e-08
-2.6924e-06
6.38826e-08
-2.70449e-06
4.96739e-08
-2.71292e-06
3.51519e-08
-2.71763e-06
2.03504e-08
-2.71855e-06
5.30599e-09
-2.71565e-06
-9.94217e-09
-2.70888e-06
-2.53522e-08
-2.69823e-06
-4.08796e-08
-2.68367e-06
-5.64776e-08
-2.66522e-06
-7.20971e-08
-2.64288e-06
-8.7687e-08
-2.61667e-06
-1.03194e-07
-2.58663e-06
-1.18564e-07
-2.55282e-06
-1.33739e-07
-2.5153e-06
-1.48663e-07
-2.47415e-06
-1.63278e-07
-2.42945e-06
-1.77524e-07
-2.38133e-06
-1.91343e-07
-2.3299e-06
-2.04674e-07
-2.2753e-06
-2.1746e-07
-2.21767e-06
-2.29642e-07
-2.15719e-06
-2.41164e-07
-2.09402e-06
-2.5197e-07
-2.02836e-06
-2.62007e-07
-1.96041e-06
-2.71223e-07
-1.89038e-06
-2.79572e-07
-1.81849e-06
-2.87006e-07
-1.74498e-06
-2.93485e-07
-1.67009e-06
-2.9897e-07
-1.59407e-06
-3.03428e-07
-1.51718e-06
-3.06827e-07
-1.43968e-06
-3.09145e-07
-1.36184e-06
-3.1036e-07
-1.28393e-06
-3.10458e-07
-1.20622e-06
-3.09431e-07
-1.12899e-06
-3.07274e-07
-1.05251e-06
-3.0399e-07
-9.77061e-07
-2.99587e-07
-9.02899e-07
-2.9408e-07
-8.30291e-07
-2.8749e-07
-7.59492e-07
-2.79843e-07
-6.90752e-07
-2.71173e-07
-6.24307e-07
-2.61519e-07
-5.60384e-07
-2.50928e-07
-4.99198e-07
-2.39452e-07
-4.40947e-07
-2.27151e-07
-3.85815e-07
-2.1409e-07
-3.33967e-07
-2.00343e-07
-2.85548e-07
-1.85987e-07
-2.40683e-07
-1.71112e-07
-1.99472e-07
-1.55812e-07
-1.61993e-07
-1.40188e-07
-1.28293e-07
-1.24354e-07
-9.83931e-08
-1.08432e-07
-7.22818e-08
-9.25526e-08
-4.99137e-08
-7.68626e-08
-3.12075e-08
-6.1521e-08
-1.60428e-08
-4.67031e-08
-4.25741e-09
-3.26032e-08
4.35542e-09
-1.9437e-08
1.00501e-08
-7.44431e-09
1.3132e-08
3.10719e-09
1.39602e-08
1.19195e-08
1.29519e-08
1.86618e-08
1.05867e-08
2.29688e-08
7.41513e-09
2.44409e-08
4.07246e-09
2.26466e-08
1.30091e-09
1.71235e-08
7.34358e-09
-4.90395e-10
-3.67198e-09
-2.70072e-09
-3.59292e-09
-7.24517e-09
2.17449e-09
-1.46211e-08
1.22953e-08
-2.52223e-08
2.57183e-08
-3.9349e-08
4.15649e-08
-5.72175e-08
5.91048e-08
-7.89693e-08
7.77381e-08
-1.0468e-07
9.69755e-08
-1.34369e-07
1.1642e-07
-1.68006e-07
1.35755e-07
-2.05517e-07
1.54726e-07
-2.46797e-07
1.73136e-07
-2.91711e-07
1.90834e-07
-3.401e-07
2.07703e-07
-3.9179e-07
2.23661e-07
-4.46592e-07
2.38648e-07
-5.04308e-07
2.52627e-07
-5.64732e-07
2.65576e-07
-6.27656e-07
2.77486e-07
-6.92869e-07
2.8836e-07
-7.60161e-07
2.98208e-07
-8.29321e-07
3.07045e-07
-9.00144e-07
3.14892e-07
-9.72423e-07
3.21771e-07
-1.04596e-06
3.27708e-07
-1.12056e-06
3.32727e-07
-1.19602e-06
3.36855e-07
-1.27216e-06
3.40115e-07
-1.34879e-06
3.42532e-07
-1.42574e-06
3.44128e-07
-1.50283e-06
3.44924e-07
-1.57987e-06
3.44936e-07
-1.65671e-06
3.44183e-07
-1.73317e-06
3.42679e-07
-1.80908e-06
3.40435e-07
-1.88429e-06
3.37463e-07
-1.95863e-06
3.3377e-07
-2.03195e-06
3.29365e-07
-2.10408e-06
3.24252e-07
-2.17486e-06
3.18436e-07
-2.24415e-06
3.11922e-07
-2.31177e-06
3.04711e-07
-2.37759e-06
2.96807e-07
-2.44145e-06
2.88212e-07
-2.50319e-06
2.78929e-07
-2.56267e-06
2.68962e-07
-2.61972e-06
2.58314e-07
-2.67422e-06
2.46992e-07
-2.72601e-06
2.35001e-07
-2.77494e-06
2.22351e-07
-2.82089e-06
2.09051e-07
-2.8637e-06
1.95115e-07
-2.90326e-06
1.80557e-07
-2.93942e-06
1.65396e-07
-2.97207e-06
1.49651e-07
-3.00108e-06
1.33346e-07
-3.02635e-06
1.16508e-07
-3.04777e-06
9.91664e-08
-3.06524e-06
8.13547e-08
-3.07868e-06
6.31094e-08
-3.08799e-06
4.44704e-08
-3.09313e-06
2.54812e-08
-3.09401e-06
6.18875e-09
-3.09059e-06
-1.33568e-08
-3.08284e-06
-3.3102e-08
-3.07073e-06
-5.29902e-08
-3.05425e-06
-7.29617e-08
-3.03339e-06
-9.2954e-08
-3.00818e-06
-1.12902e-07
-2.97863e-06
-1.32739e-07
-2.9448e-06
-1.52394e-07
-2.90674e-06
-1.71797e-07
-2.86453e-06
-1.90875e-07
-2.81826e-06
-2.09553e-07
-2.76802e-06
-2.27758e-07
-2.71395e-06
-2.45415e-07
-2.65618e-06
-2.62448e-07
-2.59485e-06
-2.78784e-07
-2.53014e-06
-2.9435e-07
-2.46223e-06
-3.09074e-07
-2.39132e-06
-3.22885e-07
-2.31761e-06
-3.35718e-07
-2.24132e-06
-3.47507e-07
-2.1627e-06
-3.58192e-07
-2.082e-06
-3.67715e-07
-1.99946e-06
-3.76023e-07
-1.91536e-06
-3.8307e-07
-1.82997e-06
-3.88811e-07
-1.74359e-06
-3.9321e-07
-1.6565e-06
-3.96235e-07
-1.569e-06
-3.97861e-07
-1.48139e-06
-3.9807e-07
-1.39397e-06
-3.96851e-07
-1.30704e-06
-3.94198e-07
-1.22092e-06
-3.90117e-07
-1.13589e-06
-3.84616e-07
-1.05226e-06
-3.77714e-07
-9.70307e-07
-3.69439e-07
-8.90327e-07
-3.59823e-07
-8.12589e-07
-3.4891e-07
-7.37358e-07
-3.3675e-07
-6.64885e-07
-3.23402e-07
-5.95405e-07
-3.08932e-07
-5.2914e-07
-2.93416e-07
-4.66293e-07
-2.76937e-07
-4.07047e-07
-2.59589e-07
-3.51562e-07
-2.41472e-07
-2.99978e-07
-2.22696e-07
-2.52407e-07
-2.03383e-07
-2.08934e-07
-1.83661e-07
-1.69614e-07
-1.63674e-07
-1.34473e-07
-1.43573e-07
-1.03501e-07
-1.23525e-07
-7.66509e-08
-1.03712e-07
-5.384e-08
-8.43319e-08
-3.49426e-08
-6.56004e-08
-1.97903e-08
-4.77556e-08
-8.16819e-09
-3.1059e-08
1.86917e-10
-1.57993e-08
5.58969e-09
-2.29561e-09
8.4092e-09
9.09989e-09
9.07266e-09
1.79983e-08
8.07038e-09
2.39712e-08
5.96347e-09
2.65479e-08
3.39631e-09
2.52137e-08
1.1146e-09
1.94051e-08
8.45819e-09
-9.64573e-10
-2.70741e-09
-4.43302e-09
-1.24467e-10
-1.09e-08
8.6415e-09
-2.07751e-08
2.21703e-08
-3.43853e-08
3.93285e-08
-5.19795e-08
5.91591e-08
-7.3734e-08
8.08592e-08
-9.97588e-08
1.03763e-07
-1.30105e-07
1.27321e-07
-1.6477e-07
1.51085e-07
-2.03706e-07
1.74691e-07
-2.46827e-07
1.97846e-07
-2.94011e-07
2.2032e-07
-3.4511e-07
2.41933e-07
-3.99953e-07
2.62546e-07
-4.58352e-07
2.8206e-07
-5.20104e-07
3.004e-07
-5.84997e-07
3.1752e-07
-6.52811e-07
3.3339e-07
-7.23322e-07
3.47997e-07
-7.96304e-07
3.61342e-07
-8.71529e-07
3.73433e-07
-9.48771e-07
3.84288e-07
-1.02781e-06
3.93927e-07
-1.10841e-06
4.02378e-07
-1.19037e-06
4.09667e-07
-1.27347e-06
4.15825e-07
-1.3575e-06
4.2088e-07
-1.44224e-06
4.24862e-07
-1.52751e-06
4.27798e-07
-1.61309e-06
4.29713e-07
-1.6988e-06
4.30633e-07
-1.78444e-06
4.30578e-07
-1.86983e-06
4.29569e-07
-1.95477e-06
4.27623e-07
-2.03909e-06
4.24754e-07
-2.12261e-06
4.20975e-07
-2.20513e-06
4.16298e-07
-2.2865e-06
4.1073e-07
-2.36653e-06
4.04279e-07
-2.44504e-06
3.9695e-07
-2.52187e-06
3.8875e-07
-2.59684e-06
3.79682e-07
-2.66978e-06
3.69749e-07
-2.74053e-06
3.58957e-07
-2.8089e-06
3.47308e-07
-2.87475e-06
3.34809e-07
-2.9379e-06
3.21465e-07
-2.99819e-06
3.07283e-07
-3.05547e-06
2.92274e-07
-3.10956e-06
2.76447e-07
-3.16033e-06
2.59818e-07
-3.20762e-06
2.42403e-07
-3.25128e-06
2.2422e-07
-3.29118e-06
2.05293e-07
-3.32718e-06
1.85648e-07
-3.35915e-06
1.65315e-07
-3.38696e-06
1.44327e-07
-3.41052e-06
1.22722e-07
-3.42971e-06
1.00541e-07
-3.44443e-06
7.783e-08
-3.45459e-06
5.46392e-08
-3.46014e-06
3.10225e-08
-3.46099e-06
7.03811e-09
-3.45709e-06
-1.72517e-08
-3.44841e-06
-4.17808e-08
-3.43492e-06
-6.6479e-08
-3.41661e-06
-9.12727e-08
-3.39348e-06
-1.16085e-07
-3.36555e-06
-1.40836e-07
-3.33285e-06
-1.65441e-07
-3.29542e-06
-1.89817e-07
-3.25334e-06
-2.13875e-07
-3.20669e-06
-2.37526e-07
-3.15557e-06
-2.60679e-07
-3.10008e-06
-2.83243e-07
-3.04037e-06
-3.05126e-07
-2.97658e-06
-3.26236e-07
-2.90889e-06
-3.46483e-07
-2.83746e-06
-3.65777e-07
-2.7625e-06
-3.8403e-07
-2.68423e-06
-4.01157e-07
-2.60287e-06
-4.17076e-07
-2.51867e-06
-4.31708e-07
-2.43189e-06
-4.44978e-07
-2.34278e-06
-4.56816e-07
-2.25165e-06
-4.67159e-07
-2.15877e-06
-4.75947e-07
-2.06446e-06
-4.83127e-07
-1.96901e-06
-4.88655e-07
-1.87275e-06
-4.92492e-07
-1.77601e-06
-4.94607e-07
-1.6791e-06
-4.94978e-07
-1.58236e-06
-4.93591e-07
-1.48612e-06
-4.90442e-07
-1.3907e-06
-4.85533e-07
-1.29644e-06
-4.78878e-07
-1.20365e-06
-4.70499e-07
-1.11266e-06
-4.6043e-07
-1.02377e-06
-4.48712e-07
-9.37284e-07
-4.35398e-07
-8.53485e-07
-4.2055e-07
-7.72648e-07
-4.04239e-07
-6.95031e-07
-3.86548e-07
-6.20877e-07
-3.6757e-07
-5.50406e-07
-3.47409e-07
-4.83818e-07
-3.26177e-07
-4.21291e-07
-3.03999e-07
-3.62976e-07
-2.81011e-07
-3.08998e-07
-2.57361e-07
-2.59451e-07
-2.33208e-07
-2.144e-07
-2.08725e-07
-1.73873e-07
-1.84099e-07
-1.37866e-07
-1.59532e-07
-1.06334e-07
-1.35244e-07
-7.91939e-08
-1.11472e-07
-5.63185e-08
-8.84758e-08
-3.75371e-08
-6.65371e-08
-2.26313e-08
-4.59647e-08
-1.13341e-08
-2.70965e-08
-3.32663e-09
-1.0303e-08
1.76417e-09
4.00905e-09
4.36904e-09
1.53933e-08
4.98105e-09
2.33592e-08
4.16204e-09
2.73669e-08
2.5523e-09
2.68235e-08
8.83438e-10
2.10739e-08
9.3416e-09
-1.44981e-09
-1.2576e-09
-6.22206e-09
4.64779e-09
-1.46922e-08
1.71116e-08
-2.71763e-08
3.46544e-08
-4.39273e-08
5.60795e-08
-6.51349e-08
8.03667e-08
-9.09278e-08
1.06652e-07
-1.21378e-07
1.34213e-07
-1.56505e-07
1.62448e-07
-1.96281e-07
1.90861e-07
-2.40636e-07
2.19046e-07
-2.89465e-07
2.46675e-07
-3.42629e-07
2.73485e-07
-3.99967e-07
2.9927e-07
-4.61292e-07
3.23871e-07
-5.26401e-07
3.47169e-07
-5.9508e-07
3.69079e-07
-6.67101e-07
3.89541e-07
-7.42231e-07
4.0852e-07
-8.20231e-07
4.25997e-07
-9.0086e-07
4.41971e-07