/*--------------------------------*- C++ -*----------------------------------*\
  =========                 |
  \\      /  F ield         | OpenFOAM: The Open Source CFD Toolbox
   \\    /   O peration     | Website:  https://openfoam.org
    \\  /    A nd           | Version:  9
     \\/     M anipulation  |
\*---------------------------------------------------------------------------*/
FoamFile
{
    format      ascii;
    class       volVectorField;
    location    "0.6";
    object      U;
}
// * * * * * * * * * * * * * * * * * * * * * * * * * * * * * * * * * * * * * //

dimensions      [0 1 -1 0 0 0 0];

internalField   nonuniform List<vector> 
16384
(
(1.23995e-05 -1.40717e-05 0)
(7.99074e-05 -4.49994e-05 0)
(0.00020483 -5.77725e-05 0)
(0.000338202 -5.59085e-05 0)
(0.000448484 -4.54794e-05 0)
(0.000518925 -3.03738e-05 0)
(0.000539737 -1.2898e-05 0)
(0.00050549 5.55361e-06 0)
(0.00041377 2.41431e-05 0)
(0.000264167 4.23668e-05 0)
(5.75874e-05 5.99185e-05 0)
(-0.000204178 7.66134e-05 0)
(-0.000518751 9.23433e-05 0)
(-0.000883371 0.00010705 0)
(-0.00129504 0.000120711 0)
(-0.00175065 0.000133325 0)
(-0.002247 0.000144909 0)
(-0.00278093 0.00015549 0)
(-0.00334932 0.000165103 0)
(-0.0039491 0.000173788 0)
(-0.00457733 0.000181589 0)
(-0.00523114 0.000188549 0)
(-0.00590781 0.000194712 0)
(-0.00660472 0.000200123 0)
(-0.00731938 0.000204823 0)
(-0.0080494 0.000208851 0)
(-0.00879253 0.000212245 0)
(-0.00954661 0.000215038 0)
(-0.0103096 0.000217263 0)
(-0.0110795 0.000218947 0)
(-0.0118544 0.000220115 0)
(-0.0126325 0.000220789 0)
(-0.0134121 0.000220986 0)
(-0.0141915 0.000220723 0)
(-0.014969 0.000220011 0)
(-0.015743 0.00021886 0)
(-0.0165119 0.000217278 0)
(-0.0172743 0.000215268 0)
(-0.0180284 0.000212834 0)
(-0.0187728 0.000209976 0)
(-0.019506 0.000206694 0)
(-0.0202264 0.000202985 0)
(-0.0209325 0.000198846 0)
(-0.0216227 0.000194273 0)
(-0.0222955 0.000189262 0)
(-0.0229494 0.000183809 0)
(-0.0235827 0.000177908 0)
(-0.0241938 0.000171557 0)
(-0.0247813 0.000164751 0)
(-0.0253435 0.000157488 0)
(-0.0258788 0.000149767 0)
(-0.0263856 0.000141588 0)
(-0.0268624 0.000132952 0)
(-0.0273076 0.000123864 0)
(-0.0277197 0.00011433 0)
(-0.0280972 0.000104356 0)
(-0.0284386 9.39537e-05 0)
(-0.0287425 8.31358e-05 0)
(-0.0290075 7.1918e-05 0)
(-0.0292323 6.03188e-05 0)
(-0.0294158 4.83595e-05 0)
(-0.0295567 3.60646e-05 0)
(-0.029654 2.34615e-05 0)
(-0.0297067 1.05807e-05 0)
(-0.0297141 -2.54447e-06 0)
(-0.0296753 -1.58774e-05 0)
(-0.0295899 -2.93787e-05 0)
(-0.0294574 -4.30061e-05 0)
(-0.0292775 -5.67146e-05 0)
(-0.02905 -7.04568e-05 0)
(-0.028775 -8.41826e-05 0)
(-0.0284527 -9.78399e-05 0)
(-0.0280834 -0.000111375 0)
(-0.0276679 -0.000124731 0)
(-0.0272067 -0.000137853 0)
(-0.0267009 -0.00015068 0)
(-0.0261516 -0.000163155 0)
(-0.0255602 -0.000175219 0)
(-0.0249281 -0.000186812 0)
(-0.0242573 -0.000197875 0)
(-0.0235495 -0.00020835 0)
(-0.022807 -0.000218181 0)
(-0.022032 -0.000227312 0)
(-0.021227 -0.000235691 0)
(-0.0203947 -0.000243267 0)
(-0.0195379 -0.000249993 0)
(-0.0186596 -0.000255824 0)
(-0.0177629 -0.000260719 0)
(-0.0168511 -0.000264644 0)
(-0.0159274 -0.000267565 0)
(-0.0149955 -0.000269455 0)
(-0.0140586 -0.000270292 0)
(-0.0131206 -0.00027006 0)
(-0.0121849 -0.000268747 0)
(-0.0112554 -0.000266347 0)
(-0.0103355 -0.00026286 0)
(-0.00942907 -0.000258291 0)
(-0.00853965 -0.000252654 0)
(-0.00767083 -0.000245964 0)
(-0.00682611 -0.000238246 0)
(-0.00600889 -0.000229529 0)
(-0.00522248 -0.000219848 0)
(-0.00447005 -0.000209244 0)
(-0.0037546 -0.000197762 0)
(-0.00307898 -0.000185454 0)
(-0.00244585 -0.000172378 0)
(-0.00185765 -0.000158596 0)
(-0.0013166 -0.000144175 0)
(-0.000824646 -0.00012919 0)
(-0.00038349 -0.00011372 0)
(5.47751e-06 -9.78514e-05 0)
(0.000341186 -8.16793e-05 0)
(0.000622921 -6.53066e-05 0)
(0.000850359 -4.88486e-05 0)
(0.00102362 -3.24354e-05 0)
(0.0011433 -1.62173e-05 0)
(0.00121059 -3.709e-07 0)
(0.00122733 1.48904e-05 0)
(0.00119614 2.93007e-05 0)
(0.00112065 4.25148e-05 0)
(0.00100567 5.40676e-05 0)
(0.000857616 6.33089e-05 0)
(0.000684955 6.93064e-05 0)
(0.000498941 7.07277e-05 0)
(0.000314351 6.57253e-05 0)
(0.000150628 5.17845e-05 0)
(3.47413e-05 2.65182e-05 0)
(-3.62917e-06 -3.54169e-06 0)
(4.40707e-05 -8.2477e-05 0)
(0.000197213 -0.000198865 0)
(0.000432146 -0.000239269 0)
(0.000662893 -0.000219121 0)
(0.000829727 -0.000158587 0)
(0.000895831 -7.2627e-05 0)
(0.00083654 2.84165e-05 0)
(0.000636332 0.000137456 0)
(0.000286811 0.000249679 0)
(-0.000215227 0.000361814 0)
(-0.000869267 0.000471639 0)
(-0.00167213 0.000577641 0)
(-0.00261874 0.000678808 0)
(-0.00370273 0.000774485 0)
(-0.00491681 0.000864271 0)
(-0.00625315 0.000947951 0)
(-0.00770357 0.00102545 0)
(-0.00925977 0.0010968 0)
(-0.0109134 0.00116209 0)
(-0.0126563 0.00122147 0)
(-0.0144803 0.00127513 0)
(-0.0163776 0.00132329 0)
(-0.0183406 0.00136616 0)
(-0.0203619 0.00140397 0)
(-0.0224345 0.00143695 0)
(-0.0245517 0.00146532 0)
(-0.0267069 0.0014893 0)
(-0.028894 0.00150908 0)
(-0.0311069 0.00152484 0)
(-0.03334 0.00153677 0)
(-0.0355877 0.001545 0)
(-0.0378446 0.00154968 0)
(-0.0401057 0.00155092 0)
(-0.0423659 0.00154881 0)
(-0.0446204 0.00154345 0)
(-0.0468643 0.00153489 0)
(-0.0490931 0.00152319 0)
(-0.0513019 0.00150838 0)
(-0.0534864 0.0014905 0)
(-0.0556419 0.00146954 0)
(-0.0577638 0.00144553 0)
(-0.0598478 0.00141845 0)
(-0.0618893 0.0013883 0)
(-0.0638837 0.00135506 0)
(-0.0658265 0.00131872 0)
(-0.0677133 0.00127926 0)
(-0.0695393 0.00123667 0)
(-0.0713001 0.00119094 0)
(-0.0729912 0.00114205 0)
(-0.0746078 0.00109002 0)
(-0.0761456 0.00103485 0)
(-0.0776 0.000976543 0)
(-0.0789665 0.000915144 0)
(-0.0802407 0.000850687 0)
(-0.0814183 0.000783227 0)
(-0.0824951 0.000712832 0)
(-0.0834669 0.000639587 0)
(-0.0843299 0.000563593 0)
(-0.0850801 0.000484969 0)
(-0.0857141 0.000403854 0)
(-0.0862283 0.000320401 0)
(-0.0866198 0.000234788 0)
(-0.0868855 0.000147208 0)
(-0.0870229 5.78752e-05 0)
(-0.0870299 -3.29768e-05 0)
(-0.0869044 -0.000125096 0)
(-0.086645 -0.000218212 0)
(-0.0862506 -0.000312036 0)
(-0.0857205 -0.000406262 0)
(-0.0850543 -0.000500569 0)
(-0.0842525 -0.000594622 0)
(-0.0833156 -0.00068807 0)
(-0.0822449 -0.000780552 0)
(-0.0810422 -0.000871698 0)
(-0.0797098 -0.000961127 0)
(-0.0782503 -0.00104846 0)
(-0.0766673 -0.0011333 0)
(-0.0749646 -0.00121525 0)
(-0.0731466 -0.00129394 0)
(-0.0712185 -0.00136898 0)
(-0.0691857 -0.00143998 0)
(-0.0670543 -0.00150658 0)
(-0.0648309 -0.00156841 0)
(-0.0625225 -0.00162514 0)
(-0.0601368 -0.00167643 0)
(-0.0576817 -0.00172197 0)
(-0.0551656 -0.00176149 0)
(-0.0525973 -0.00179472 0)
(-0.0499859 -0.00182142 0)
(-0.0473409 -0.0018414 0)
(-0.044672 -0.00185448 0)
(-0.0419891 -0.00186051 0)
(-0.0393022 -0.00185939 0)
(-0.0366216 -0.00185106 0)
(-0.0339576 -0.00183548 0)
(-0.0313205 -0.00181265 0)
(-0.0287204 -0.00178263 0)
(-0.0261675 -0.00174549 0)
(-0.023672 -0.00170135 0)
(-0.0212434 -0.00165039 0)
(-0.0188915 -0.0015928 0)
(-0.0166253 -0.00152883 0)
(-0.0144537 -0.00145876 0)
(-0.0123851 -0.0013829 0)
(-0.0104275 -0.00130162 0)
(-0.00858807 -0.00121532 0)
(-0.00687368 -0.00112443 0)
(-0.00529038 -0.00102943 0)
(-0.00384351 -0.000930848 0)
(-0.00253764 -0.000829248 0)
(-0.00137644 -0.000725252 0)
(-0.00036266 -0.000619538 0)
(0.00050201 -0.000512853 0)
(0.00121702 -0.000406028 0)
(0.00178312 -0.000299995 0)
(0.00220247 -0.000195819 0)
(0.00247891 -9.47322e-05 0)
(0.00261813 1.81196e-06 0)
(0.00262807 9.2065e-05 0)
(0.00251926 0.000173877 0)
(0.0023054 0.000244548 0)
(0.00200401 0.000300616 0)
(0.00163728 0.000337603 0)
(0.00123297 0.000349787 0)
(0.000824758 0.000330211 0)
(0.000452306 0.000271053 0)
(0.000166449 0.000166832 0)
(2.62661e-05 3.47957e-05 0)
(5.76561e-05 -0.000206427 0)
(0.000239366 -0.000433693 0)
(0.00049264 -0.000492166 0)
(0.000710542 -0.000419614 0)
(0.000819835 -0.000253592 0)
(0.000773113 -2.4398e-05 0)
(0.000536588 0.00024503 0)
(8.76576e-05 0.0005378 0)
(-0.000586931 0.000841663 0)
(-0.00149321 0.0011478 0)
(-0.00263174 0.00144989 0)
(-0.00399899 0.00174345 0)
(-0.00558842 0.00202532 0)
(-0.00739123 0.00229333 0)
(-0.00939711 0.00254607 0)
(-0.0115947 0.00278267 0)
(-0.0139718 0.00300269 0)
(-0.016516 0.00320598 0)
(-0.0192147 0.00339264 0)
(-0.0220554 0.00356295 0)
(-0.0250254 0.0037173 0)
(-0.0281126 0.00385617 0)
(-0.0313051 0.00398009 0)
(-0.0345913 0.00408961 0)
(-0.0379601 0.00418533 0)
(-0.0414007 0.00426779 0)
(-0.0449026 0.00433756 0)
(-0.0484559 0.00439515 0)
(-0.052051 0.00444106 0)
(-0.0556784 0.00447574 0)
(-0.0593294 0.0044996 0)
(-0.062995 0.00451301 0)
(-0.066667 0.00451627 0)
(-0.0703371 0.00450968 0)
(-0.0739973 0.00449346 0)
(-0.0776397 0.00446779 0)
(-0.0812567 0.00443283 0)
(-0.0848405 0.0043887 0)
(-0.0883838 0.00433547 0)
(-0.091879 0.00427319 0)
(-0.0953187 0.00420189 0)
(-0.0986955 0.00412158 0)
(-0.102002 0.00403225 0)
(-0.105231 0.00393389 0)
(-0.108375 0.00382646 0)
(-0.111426 0.00370995 0)
(-0.114378 0.00358433 0)
(-0.117222 0.00344959 0)
(-0.119952 0.00330575 0)
(-0.12256 0.0031528 0)
(-0.125038 0.00299081 0)
(-0.127381 0.00281985 0)
(-0.129579 0.00264 0)
(-0.131628 0.00245143 0)
(-0.133518 0.00225428 0)
(-0.135245 0.0020488 0)
(-0.136801 0.00183523 0)
(-0.13818 0.0016139 0)
(-0.139376 0.00138514 0)
(-0.140383 0.00114939 0)
(-0.141197 0.000907091 0)
(-0.141812 0.000658767 0)
(-0.142224 0.000404985 0)
(-0.142429 0.000146368 0)
(-0.142423 -0.000116407 0)
(-0.142204 -0.000382612 0)
(-0.14177 -0.000651468 0)
(-0.141118 -0.000922145 0)
(-0.140248 -0.00119377 0)
(-0.139159 -0.00146542 0)
(-0.137853 -0.00173614 0)
(-0.13633 -0.00200494 0)
(-0.134593 -0.00227078 0)
(-0.132644 -0.00253262 0)
(-0.130488 -0.00278938 0)
(-0.128128 -0.00303998 0)
(-0.125571 -0.0032833 0)
(-0.122822 -0.00351827 0)
(-0.119889 -0.00374377 0)
(-0.11678 -0.00395872 0)
(-0.113504 -0.00416206 0)
(-0.110071 -0.00435274 0)
(-0.106491 -0.00452976 0)
(-0.102775 -0.00469215 0)
(-0.0989356 -0.004839 0)
(-0.0949854 -0.00496944 0)
(-0.0909376 -0.00508268 0)
(-0.0868063 -0.00517798 0)
(-0.082606 -0.0052547 0)
(-0.0783516 -0.00531227 0)
(-0.0740585 -0.0053502 0)
(-0.0697424 -0.00536811 0)
(-0.0654193 -0.00536571 0)
(-0.0611053 -0.0053428 0)
(-0.0568167 -0.0052993 0)
(-0.0525697 -0.00523525 0)
(-0.0483806 -0.00515077 0)
(-0.0442653 -0.00504611 0)
(-0.0402397 -0.00492163 0)
(-0.0363193 -0.0047778 0)
(-0.0325189 -0.00461522 0)
(-0.0288533 -0.00443456 0)
(-0.0253363 -0.00423666 0)
(-0.021981 -0.00402244 0)
(-0.0188 -0.00379293 0)
(-0.0158046 -0.00354929 0)
(-0.0130056 -0.00329279 0)
(-0.0104124 -0.00302483 0)
(-0.00803318 -0.00274694 0)
(-0.00587508 -0.00246076 0)
(-0.00394365 -0.00216812 0)
(-0.00224298 -0.001871 0)
(-0.00077545 -0.00157159 0)
(0.000458411 -0.00127231 0)
(0.00146012 -0.00097587 0)
(0.00223348 -0.000685348 0)
(0.00278489 -0.000404262 0)
(0.00312366 -0.000136707 0)
(0.00326245 0.000112489 0)
(0.00321779 0.000337558 0)
(0.0030107 0.000531518 0)
(0.00266735 0.000685863 0)
(0.00221996 0.000790234 0)
(0.00170744 0.000832297 0)
(0.00117513 0.000798233 0)
(0.000674005 0.00067433 0)
(0.000270361 0.000452324 0)
(5.13812e-05 0.000150191 0)
(5.64233e-05 -0.000340146 0)
(0.000220992 -0.000665346 0)
(0.000422702 -0.000710513 0)
(0.000546382 -0.000543126 0)
(0.000512855 -0.000220267 0)
(0.000269378 0.00021127 0)
(-0.000222666 0.00071465 0)
(-0.000989951 0.00126167 0)
(-0.00204883 0.00183105 0)
(-0.00340734 0.00240691 0)
(-0.005067 0.00297748 0)
(-0.00702422 0.00353413 0)
(-0.00927152 0.00407062 0)
(-0.0117985 0.00458253 0)
(-0.0145925 0.00506683 0)
(-0.0176395 0.00552156 0)
(-0.0209242 0.00594558 0)
(-0.0244308 0.00633837 0)
(-0.0281431 0.00669988 0)
(-0.0320449 0.00703043 0)
(-0.0361199 0.0073306 0)
(-0.0403521 0.00760114 0)
(-0.0447257 0.00784294 0)
(-0.0492255 0.00805695 0)
(-0.0538366 0.00824419 0)
(-0.0585445 0.00840566 0)
(-0.0633352 0.00854233 0)
(-0.0681953 0.00865517 0)
(-0.0731116 0.00874506 0)
(-0.0780715 0.00881284 0)
(-0.0830627 0.00885925 0)
(-0.0880734 0.00888499 0)
(-0.0930919 0.00889065 0)
(-0.0981071 0.00887675 0)
(-0.103108 0.00884372 0)
(-0.108083 0.00879195 0)
(-0.113023 0.00872171 0)
(-0.117916 0.00863323 0)
(-0.122752 0.00852669 0)
(-0.127522 0.00840219 0)
(-0.132214 0.00825982 0)
(-0.136819 0.0080996 0)
(-0.141326 0.00792154 0)
(-0.145725 0.00772564 0)
(-0.150007 0.00751187 0)
(-0.15416 0.00728022 0)
(-0.158176 0.00703067 0)
(-0.162044 0.00676325 0)
(-0.165753 0.00647797 0)
(-0.169295 0.00617492 0)
(-0.172659 0.00585422 0)
(-0.175835 0.00551604 0)
(-0.178815 0.0051606 0)
(-0.181587 0.00478821 0)
(-0.184144 0.00439923 0)
(-0.186476 0.00399413 0)
(-0.188575 0.00357344 0)
(-0.190432 0.00313779 0)
(-0.19204 0.00268789 0)
(-0.19339 0.00222458 0)
(-0.194476 0.00174876 0)
(-0.195292 0.00126147 0)
(-0.195831 0.000763813 0)
(-0.19609 0.000257028 0)
(-0.196062 -0.000257564 0)
(-0.195745 -0.000778537 0)
(-0.195135 -0.00130437 0)
(-0.194232 -0.00183345 0)
(-0.193033 -0.00236408 0)
(-0.191538 -0.00289447 0)
(-0.18975 -0.00342277 0)
(-0.187668 -0.00394705 0)
(-0.185297 -0.00446534 0)
(-0.182641 -0.00497559 0)
(-0.179704 -0.00547575 0)
(-0.176494 -0.00596371 0)
(-0.173017 -0.00643736 0)
(-0.169283 -0.0068946 0)
(-0.1653 -0.0073333 0)
(-0.161081 -0.0077514 0)
(-0.156636 -0.00814684 0)
(-0.15198 -0.00851763 0)
(-0.147125 -0.00886186 0)
(-0.142089 -0.00917766 0)
(-0.136885 -0.00946329 0)
(-0.131533 -0.00971711 0)
(-0.126049 -0.00993758 0)
(-0.120452 -0.0101233 0)
(-0.114761 -0.0102731 0)
(-0.108997 -0.0103858 0)
(-0.103181 -0.0104606 0)
(-0.0973318 -0.0104966 0)
(-0.0914723 -0.0104934 0)
(-0.0856237 -0.0104506 0)
(-0.0798075 -0.010368 0)
(-0.0740455 -0.0102458 0)
(-0.0683593 -0.0100841 0)
(-0.0627702 -0.00988351 0)
(-0.0572992 -0.00964467 0)
(-0.051967 -0.00936853 0)
(-0.0467934 -0.00905623 0)
(-0.0417978 -0.00870914 0)
(-0.0369987 -0.00832884 0)
(-0.0324135 -0.00791714 0)
(-0.0280588 -0.00747608 0)
(-0.0239499 -0.00700792 0)
(-0.0201006 -0.00651515 0)
(-0.0165235 -0.00600051 0)
(-0.0132295 -0.00546698 0)
(-0.0102276 -0.00491782 0)
(-0.00752525 -0.0043566 0)
(-0.00512752 -0.00378721 0)
(-0.00303736 -0.00321394 0)
(-0.00125521 -0.0026415 0)
(0.000221229 -0.00207519 0)
(0.00139725 -0.00152091 0)
(0.0022815 -0.000985403 0)
(0.0028864 -0.00047639 0)
(0.00322853 -2.83107e-06 0)
(0.00332925 0.000424789 0)
(0.00321518 0.000794118 0)
(0.0029189 0.00109059 0)
(0.0024796 0.00129714 0)
(0.00194368 0.00139423 0)
(0.0013641 0.00136068 0)
(0.000799849 0.0011758 0)
(0.000329911 0.000824779 0)
(6.52494e-05 0.000313221 0)
(4.653e-05 -0.000452016 0)
(0.000161866 -0.000834215 0)
(0.000258272 -0.000820821 0)
(0.000224402 -0.000509758 0)
(-1.88268e-05 2.16332e-05 0)
(-0.00052599 0.000709992 0)
(-0.00133746 0.00150452 0)
(-0.00248155 0.00236538 0)
(-0.003976 0.00326172 0)
(-0.00582985 0.00416988 0)
(-0.00804502 0.00507188 0)
(-0.0106178 0.00595422 0)
(-0.0135398 0.00680689 0)
(-0.0167995 0.00762262 0)
(-0.0203825 0.0083963 0)
(-0.0242723 0.00912446 0)
(-0.0284514 0.00980495 0)
(-0.0329012 0.0104366 0)
(-0.0376025 0.0110191 0)
(-0.0425358 0.0115527 0)
(-0.0476816 0.012038 0)
(-0.0530208 0.012476 0)
(-0.0585342 0.012868 0)
(-0.0642031 0.0132153 0)
(-0.0700093 0.0135194 0)
(-0.0759351 0.0137818 0)
(-0.0819631 0.014004 0)
(-0.0880767 0.0141874 0)
(-0.0942596 0.0143333 0)
(-0.100496 0.014443 0)
(-0.106771 0.0145178 0)
(-0.113068 0.0145585 0)
(-0.119375 0.0145663 0)
(-0.125676 0.0145418 0)
(-0.131957 0.0144858 0)
(-0.138206 0.0143989 0)
(-0.144408 0.0142816 0)
(-0.15055 0.0141342 0)
(-0.156619 0.0139569 0)
(-0.162602 0.0137501 0)
(-0.168487 0.0135139 0)
(-0.17426 0.0132483 0)
(-0.179908 0.0129533 0)
(-0.185419 0.0126291 0)
(-0.190781 0.0122756 0)
(-0.19598 0.0118928 0)
(-0.201004 0.0114808 0)
(-0.20584 0.0110396 0)
(-0.210476 0.0105693 0)
(-0.2149 0.01007 0)
(-0.219099 0.00954212 0)
(-0.223061 0.00898585 0)
(-0.226774 0.00840164 0)
(-0.230227 0.00779002 0)
(-0.233408 0.00715164 0)
(-0.236306 0.00648726 0)
(-0.238912 0.00579781 0)
(-0.241213 0.00508434 0)
(-0.243202 0.00434806 0)
(-0.244868 0.00359031 0)
(-0.246203 0.00281264 0)
(-0.247201 0.0020167 0)
(-0.247852 0.00120436 0)
(-0.248153 0.000377601 0)
(-0.248096 -0.000461403 0)
(-0.247678 -0.00131034 0)
(-0.246896 -0.00216673 0)
(-0.245748 -0.00302796 0)
(-0.244231 -0.00389128 0)
(-0.242348 -0.00475381 0)
(-0.240098 -0.00561255 0)
(-0.237484 -0.00646441 0)
(-0.234511 -0.00730619 0)
(-0.231184 -0.00813462 0)
(-0.227508 -0.00894639 0)
(-0.223493 -0.00973812 0)
(-0.219148 -0.0105064 0)
(-0.214483 -0.0112479 0)
(-0.209511 -0.0119592 0)
(-0.204245 -0.0126371 0)
(-0.1987 -0.0132781 0)
(-0.192892 -0.0138791 0)
(-0.18684 -0.0144372 0)
(-0.18056 -0.0149492 0)
(-0.174075 -0.0154124 0)
(-0.167403 -0.0158243 0)
(-0.160569 -0.0161823 0)
(-0.153593 -0.0164842 0)
(-0.146502 -0.0167282 0)
(-0.139317 -0.0169124 0)
(-0.132066 -0.0170354 0)
(-0.124774 -0.017096 0)
(-0.117467 -0.0170934 0)
(-0.110171 -0.0170271 0)
(-0.102913 -0.0168968 0)
(-0.09572 -0.0167025 0)
(-0.0886176 -0.0164449 0)
(-0.0816324 -0.0161246 0)
(-0.07479 -0.0157428 0)
(-0.0681157 -0.0153011 0)
(-0.0616339 -0.0148012 0)
(-0.0553684 -0.0142454 0)
(-0.0493416 -0.0136363 0)
(-0.0435751 -0.0129768 0)
(-0.0380889 -0.0122703 0)
(-0.0329017 -0.0115203 0)
(-0.0280304 -0.010731 0)
(-0.0234903 -0.00990681 0)
(-0.0192946 -0.0090526 0)
(-0.0154544 -0.00817367 0)
(-0.0119783 -0.00727581 0)
(-0.00887253 -0.00636535 0)
(-0.00614052 -0.00544922 0)
(-0.00378262 -0.00453507 0)
(-0.00179591 -0.00363136 0)
(-0.000173844 -0.00274753 0)
(0.00109408 -0.00189421 0)
(0.00202273 -0.00108346 0)
(0.0026318 -0.00032906 0)
(0.00294627 0.000353157 0)
(0.00299696 0.000944904 0)
(0.00282098 0.00142512 0)
(0.0024624 0.00176973 0)
(0.0019727 0.00195178 0)
(0.00141024 0.00194221 0)
(0.00084025 0.00171179 0)
(0.000351403 0.00123505 0)
(7.04031e-05 0.00049754 0)
(3.18098e-05 -0.000524776 0)
(7.63477e-05 -0.000902497 0)
(2.78496e-05 -0.000773991 0)
(-0.000211974 -0.000264206 0)
(-0.000717146 0.00053014 0)
(-0.00154127 0.00152972 0)
(-0.00272409 0.0026702 0)
(-0.00429357 0.00390029 0)
(-0.00626735 0.0051795 0)
(-0.00865436 0.00647613 0)
(-0.0114563 0.00776565 0)
(-0.0146688 0.00902923 0)
(-0.0182829 0.0102527 0)
(-0.0222857 0.0114255 0)
(-0.0266611 0.01254 0)
(-0.0313911 0.0135909 0)
(-0.0364559 0.0145748 0)
(-0.0418346 0.0154897 0)
(-0.0475053 0.0163347 0)
(-0.0534461 0.0171099 0)
(-0.0596347 0.0178159 0)
(-0.0660488 0.0184539 0)
(-0.0726664 0.0190255 0)
(-0.079466 0.0195324 0)
(-0.0864262 0.0199765 0)
(-0.0935263 0.0203598 0)
(-0.100746 0.0206843 0)
(-0.108066 0.0209519 0)
(-0.115466 0.0211646 0)
(-0.122929 0.021324 0)
(-0.130435 0.0214318 0)
(-0.137967 0.0214895 0)
(-0.145509 0.0214983 0)
(-0.153041 0.0214595 0)
(-0.160549 0.0213739 0)
(-0.168016 0.0212425 0)
(-0.175425 0.021066 0)
(-0.182761 0.0208448 0)
(-0.190007 0.0205795 0)
(-0.19715 0.0202703 0)
(-0.204172 0.0199175 0)
(-0.211058 0.0195212 0)
(-0.217794 0.0190816 0)
(-0.224364 0.0185987 0)
(-0.230752 0.0180726 0)
(-0.236945 0.0175033 0)
(-0.242926 0.016891 0)
(-0.248681 0.0162358 0)
(-0.254195 0.0155379 0)
(-0.259454 0.0147976 0)
(-0.264442 0.0140153 0)
(-0.269146 0.0131915 0)
(-0.273552 0.012327 0)
(-0.277646 0.0114225 0)
(-0.281414 0.0104791 0)
(-0.284844 0.00949793 0)
(-0.287924 0.00848039 0)
(-0.290641 0.00742807 0)
(-0.292985 0.00634278 0)
(-0.294944 0.00522654 0)
(-0.29651 0.00408162 0)
(-0.297672 0.0029105 0)
(-0.298424 0.0017159 0)
(-0.298758 0.000500774 0)
(-0.298668 -0.000731706 0)
(-0.298149 -0.00197814 0)
(-0.297198 -0.00323491 0)
(-0.295813 -0.0044982 0)
(-0.293992 -0.00576399 0)
(-0.291736 -0.0070281 0)
(-0.289046 -0.00828616 0)
(-0.285926 -0.00953366 0)
(-0.282381 -0.010766 0)
(-0.278417 -0.0119784 0)
(-0.274042 -0.013166 0)
(-0.269265 -0.0143241 0)
(-0.264099 -0.0154477 0)
(-0.258555 -0.0165318 0)
(-0.252648 -0.0175717 0)
(-0.246394 -0.0185625 0)
(-0.239811 -0.0194996 0)
(-0.232918 -0.0203782 0)
(-0.225735 -0.0211941 0)
(-0.218284 -0.0219428 0)
(-0.210589 -0.0226205 0)
(-0.202675 -0.0232234 0)
(-0.194566 -0.0237478 0)
(-0.186291 -0.0241908 0)
(-0.177877 -0.0245494 0)
(-0.169352 -0.0248212 0)
(-0.160747 -0.025004 0)
(-0.15209 -0.0250963 0)
(-0.143414 -0.0250967 0)
(-0.134748 -0.0250046 0)
(-0.126124 -0.0248196 0)
(-0.117572 -0.0245419 0)
(-0.109124 -0.0241721 0)
(-0.100811 -0.0237115 0)
(-0.092661 -0.0231617 0)
(-0.084705 -0.0225249 0)
(-0.0769711 -0.0218038 0)
(-0.069487 -0.0210017 0)
(-0.0622789 -0.0201224 0)
(-0.0553718 -0.0191701 0)
(-0.0487893 -0.0181497 0)
(-0.0425529 -0.0170666 0)
(-0.0366825 -0.0159267 0)
(-0.0311956 -0.0147365 0)
(-0.0261078 -0.0135031 0)
(-0.0214317 -0.0122343 0)
(-0.0171775 -0.0109386 0)
(-0.0133522 -0.00962506 0)
(-0.00995984 -0.0083039 0)
(-0.00700075 -0.00698614 0)
(-0.00447159 -0.00568395 0)
(-0.00236492 -0.00441084 0)
(-0.000668823 -0.00318188 0)
(0.000633414 -0.00201397 0)
(0.00156375 -0.000926166 0)
(0.00214983 5.99136e-05 0)
(0.00242538 0.000919742 0)
(0.00243072 0.00162552 0)
(0.00221325 0.00214596 0)
(0.00182798 0.00244638 0)
(0.00133713 0.00248921 0)
(0.00081065 0.00223529 0)
(0.000343403 0.00164604 0)
(6.95067e-05 0.000684719 0)
(1.44692e-05 -0.00054796 0)
(-2.58791e-05 -0.000843662 0)
(-0.000247428 -0.000533171 0)
(-0.00072925 0.000236441 0)
(-0.00153651 0.00135116 0)
(-0.00271951 0.00271697 0)
(-0.00431542 0.00425686 0)
(-0.00635017 0.00590864 0)
(-0.00883999 0.00762247 0)
(-0.0117927 0.00935872 0)
(-0.015209 0.0110862 0)
(-0.0190836 0.0127806 0)
(-0.0234063 0.0144234 0)
(-0.0281629 0.0160004 0)
(-0.0333361 0.0175013 0)
(-0.038906 0.0189188 0)
(-0.0448509 0.0202478 0)
(-0.0511479 0.0214854 0)
(-0.057773 0.02263 0)
(-0.0647019 0.0236812 0)
(-0.0719097 0.0246398 0)
(-0.0793717 0.0255069 0)
(-0.0870633 0.0262843 0)
(-0.0949603 0.0269741 0)
(-0.103039 0.0275788 0)
(-0.111275 0.0281008 0)
(-0.119646 0.0285425 0)
(-0.12813 0.0289065 0)
(-0.136704 0.0291952 0)
(-0.145347 0.0294108 0)
(-0.154039 0.0295553 0)
(-0.162758 0.0296309 0)
(-0.171485 0.029639 0)
(-0.180201 0.0295813 0)
(-0.188885 0.0294591 0)
(-0.19752 0.0292735 0)
(-0.206086 0.0290255 0)
(-0.214565 0.0287157 0)
(-0.222939 0.0283448 0)
(-0.23119 0.0279133 0)
(-0.239299 0.0274215 0)
(-0.24725 0.0268696 0)
(-0.255024 0.026258 0)
(-0.262603 0.0255867 0)
(-0.269971 0.0248558 0)
(-0.27711 0.0240656 0)
(-0.284003 0.0232162 0)
(-0.290632 0.0223079 0)
(-0.296981 0.0213411 0)
(-0.303032 0.0203162 0)
(-0.308769 0.0192339 0)
(-0.314177 0.0180951 0)
(-0.319238 0.0169006 0)
(-0.323938 0.0156517 0)
(-0.328261 0.0143498 0)
(-0.332193 0.0129967 0)
(-0.33572 0.0115943 0)
(-0.338828 0.0101447 0)
(-0.341504 0.00865067 0)
(-0.343738 0.00711487 0)
(-0.345517 0.00554047 0)
(-0.346832 0.00393089 0)
(-0.347675 0.0022899 0)
(-0.348037 0.000621541 0)
(-0.347911 -0.00106983 0)
(-0.347293 -0.00277956 0)
(-0.346179 -0.00450271 0)
(-0.344566 -0.00623408 0)
(-0.342454 -0.00796818 0)
(-0.339842 -0.00969931 0)
(-0.336734 -0.0114216 0)
(-0.333133 -0.0131288 0)
(-0.329045 -0.0148148 0)
(-0.324477 -0.016473 0)
(-0.319439 -0.018097 0)
(-0.313942 -0.0196803 0)
(-0.307998 -0.0212161 0)
(-0.301622 -0.0226978 0)
(-0.294832 -0.0241189 0)
(-0.287644 -0.0254729 0)
(-0.28008 -0.0267535 0)
(-0.27216 -0.0279544 0)
(-0.263909 -0.0290696 0)
(-0.255351 -0.0300935 0)
(-0.246513 -0.0310207 0)
(-0.237423 -0.031846 0)
(-0.22811 -0.0325647 0)
(-0.218605 -0.0331726 0)
(-0.208938 -0.0336659 0)
(-0.199144 -0.0340413 0)
(-0.189254 -0.0342959 0)
(-0.179303 -0.0344275 0)
(-0.169327 -0.0344345 0)
(-0.159358 -0.0343158 0)
(-0.149434 -0.0340711 0)
(-0.139588 -0.0337007 0)
(-0.129856 -0.0332053 0)
(-0.120272 -0.0325868 0)
(-0.110871 -0.0318472 0)
(-0.101684 -0.0309898 0)
(-0.0927462 -0.0300181 0)
(-0.0840869 -0.0289366 0)
(-0.0757363 -0.0277504 0)
(-0.0677228 -0.0264655 0)
(-0.0600727 -0.0250883 0)
(-0.0528107 -0.0236263 0)
(-0.045959 -0.0220875 0)
(-0.0395376 -0.0204808 0)
(-0.0335638 -0.0188159 0)
(-0.0280521 -0.0171034 0)
(-0.0230139 -0.0153548 0)
(-0.0184573 -0.0135826 0)
(-0.0143868 -0.0118003 0)
(-0.010803 -0.010023 0)
(-0.0077023 -0.00826695 0)
(-0.00507674 -0.00655012 0)
(-0.00291349 -0.00489242 0)
(-0.00119454 -0.00331597 0)
(0.000103607 -0.00184545 0)
(0.00101039 -0.000508485 0)
(0.00156151 0.00066395 0)
(0.00179938 0.00163718 0)
(0.00177359 0.00237257 0)
(0.0015415 0.00282744 0)
(0.00116795 0.00295521 0)
(0.000726048 0.00270603 0)
(0.000313393 0.00202741 0)
(6.45233e-05 0.000861284 0)
(-4.19921e-06 -0.000515148 0)
(-0.000138352 -0.000639453 0)
(-0.000552355 -7.13926e-05 0)
(-0.00130234 0.0010248 0)
(-0.0024419 0.00252048 0)
(-0.00401622 0.00430867 0)
(-0.00605825 0.00630091 0)
(-0.00859054 0.00842494 0)
(-0.0116267 0.0106221 0)
(-0.0151725 0.0128453 0)
(-0.019227 0.0150567 0)
(-0.0237834 0.0172267 0)
(-0.0288299 0.0193322 0)
(-0.034351 0.0213554 0)
(-0.0403277 0.0232832 0)
(-0.0467386 0.0251059 0)
(-0.0535603 0.0268169 0)
(-0.0607678 0.028412 0)
(-0.0683354 0.0298888 0)
(-0.0762364 0.0312467 0)
(-0.0844439 0.0324859 0)
(-0.0929309 0.0336077 0)
(-0.101671 0.0346142 0)
(-0.110636 0.0355077 0)
(-0.119801 0.036291 0)
(-0.12914 0.0369672 0)
(-0.138626 0.0375391 0)
(-0.148236 0.0380098 0)
(-0.157945 0.0383821 0)
(-0.167728 0.038659 0)
(-0.177563 0.0388429 0)
(-0.187427 0.0389363 0)
(-0.197297 0.0389412 0)
(-0.20715 0.0388596 0)
(-0.216967 0.0386932 0)
(-0.226724 0.0384433 0)
(-0.236401 0.0381112 0)
(-0.245978 0.0376979 0)
(-0.255433 0.0372041 0)
(-0.264746 0.0366305 0)
(-0.273898 0.0359776 0)
(-0.282867 0.0352457 0)
(-0.291634 0.0344352 0)
(-0.30018 0.0335464 0)
(-0.308484 0.0325795 0)
(-0.316527 0.0315348 0)
(-0.32429 0.0304127 0)
(-0.331753 0.0292135 0)
(-0.338897 0.0279379 0)
(-0.345704 0.0265865 0)
(-0.352154 0.0251604 0)
(-0.358231 0.0236605 0)
(-0.363916 0.0220884 0)
(-0.369192 0.0204457 0)
(-0.374042 0.0187343 0)
(-0.378449 0.0169565 0)
(-0.382399 0.0151149 0)
(-0.385877 0.0132126 0)
(-0.388868 0.0112528 0)
(-0.39136 0.00923941 0)
(-0.393341 0.00717642 0)
(-0.3948 0.00506838 0)
(-0.395726 0.00292022 0)
(-0.396113 0.000737228 0)
(-0.395952 -0.0014749 0)
(-0.395239 -0.00371009 0)
(-0.393968 -0.00596193 0)
(-0.392139 -0.00822363 0)
(-0.389748 -0.0104881 0)
(-0.386799 -0.0127479 0)
(-0.383293 -0.0149955 0)
(-0.379236 -0.0172228 0)
(-0.374633 -0.0194217 0)
(-0.369493 -0.0215841 0)
(-0.363827 -0.0237014 0)
(-0.357647 -0.0257651 0)
(-0.350967 -0.0277668 0)
(-0.343804 -0.0296979 0)
(-0.336177 -0.0315499 0)
(-0.328105 -0.0333145 0)
(-0.319611 -0.0349835 0)
(-0.31072 -0.0365489 0)
(-0.301457 -0.0380031 0)
(-0.29185 -0.0393387 0)
(-0.281928 -0.0405487 0)
(-0.271723 -0.0416267 0)
(-0.261267 -0.0425665 0)
(-0.250594 -0.0433628 0)
(-0.239738 -0.0440105 0)
(-0.228736 -0.0445055 0)
(-0.217624 -0.0448442 0)
(-0.206441 -0.0450237 0)
(-0.195224 -0.0450419 0)
(-0.184012 -0.0448975 0)
(-0.172844 -0.0445901 0)
(-0.161759 -0.0441198 0)
(-0.150796 -0.0434881 0)
(-0.139992 -0.042697 0)
(-0.129386 -0.0417494 0)
(-0.119013 -0.0406493 0)
(-0.108911 -0.0394015 0)
(-0.0991127 -0.0380117 0)
(-0.0896518 -0.0364866 0)
(-0.0805595 -0.0348338 0)
(-0.0718651 -0.0330619 0)
(-0.0635958 -0.0311804 0)
(-0.0557763 -0.0291999 0)
(-0.0484287 -0.0271317 0)
(-0.0415723 -0.0249886 0)
(-0.0352232 -0.0227842 0)
(-0.0293941 -0.0205333 0)
(-0.024094 -0.0182522 0)
(-0.0193283 -0.0159583 0)
(-0.0150979 -0.0136706 0)
(-0.0113993 -0.0114102 0)
(-0.00822437 -0.00919961 0)
(-0.0055597 -0.00706402 0)
(-0.00338662 -0.00503098 0)
(-0.00168066 -0.003131 0)
(-0.000411329 -0.0013979 0)
(0.00045828 0.000130802 0)
(0.000971804 0.00141349 0)
(0.00118011 0.0024041 0)
(0.00114187 0.00305183 0)
(0.000923385 0.00330093 0)
(0.000599448 0.00309072 0)
(0.000267377 0.00235521 0)
(5.68474e-05 0.00101751 0)
(-2.34494e-05 -0.000422631 0)
(-0.000256813 -0.000277938 0)
(-0.00087618 0.000630151 0)
(-0.00191273 0.00212464 0)
(-0.00340679 0.00406505 0)
(-0.00539696 0.00633341 0)
(-0.00791074 0.0088312 0)
(-0.0109661 0.0114771 0)
(-0.0145731 0.0142045 0)
(-0.0187346 0.0169592 0)
(-0.0234473 0.0196972 0)
(-0.0287023 0.0223837 0)
(-0.0344861 0.0249912 0)
(-0.0407813 0.0274984 0)
(-0.0475674 0.0298891 0)
(-0.0548211 0.0321515 0)
(-0.0625175 0.0342772 0)
(-0.0706297 0.0362607 0)
(-0.07913 0.0380987 0)
(-0.08799 0.0397899 0)
(-0.0971808 0.0413345 0)
(-0.106673 0.0427337 0)
(-0.116438 0.0439895 0)
(-0.126447 0.0451048 0)
(-0.136671 0.0460825 0)
(-0.147083 0.0469261 0)
(-0.157653 0.0476392 0)
(-0.168356 0.0482252 0)
(-0.179164 0.0486875 0)
(-0.190051 0.0490294 0)
(-0.200991 0.0492541 0)
(-0.211961 0.0493643 0)
(-0.222933 0.0493627 0)
(-0.233885 0.0492515 0)
(-0.244792 0.0490328 0)
(-0.255631 0.0487082 0)
(-0.266378 0.0482794 0)
(-0.27701 0.0477475 0)
(-0.287505 0.0471135 0)
(-0.297839 0.0463782 0)
(-0.307991 0.0455424 0)
(-0.317939 0.0446065 0)
(-0.327659 0.0435711 0)
(-0.337131 0.0424365 0)
(-0.346333 0.0412031 0)
(-0.355242 0.0398714 0)
(-0.363838 0.0384419 0)
(-0.372099 0.0369152 0)
(-0.380004 0.0352923 0)
(-0.387533 0.033574 0)
(-0.394666 0.0317616 0)
(-0.401382 0.0298568 0)
(-0.407662 0.0278613 0)
(-0.413488 0.0257773 0)
(-0.41884 0.0236073 0)
(-0.423701 0.0213545 0)
(-0.428055 0.019022 0)
(-0.431886 0.0166138 0)
(-0.435177 0.0141342 0)
(-0.437916 0.0115878 0)
(-0.440089 0.00898002 0)
(-0.441684 0.0063165 0)
(-0.442692 0.00360346 0)
(-0.443103 0.00084759 0)
(-0.442909 -0.00194393 0)
(-0.442105 -0.00476349 0)
(-0.440687 -0.007603 0)
(-0.438652 -0.010454 0)
(-0.436 -0.0133075 0)
(-0.432731 -0.0161544 0)
(-0.428849 -0.018985 0)
(-0.424359 -0.0217894 0)
(-0.419268 -0.0245575 0)
(-0.413587 -0.0272791 0)
(-0.407326 -0.0299435 0)
(-0.400499 -0.0325402 0)
(-0.393122 -0.0350586 0)
(-0.385213 -0.037488 0)
(-0.376792 -0.0398181 0)
(-0.367882 -0.0420383 0)
(-0.358507 -0.0441385 0)
(-0.348693 -0.0461089 0)
(-0.338469 -0.0479398 0)
(-0.327866 -0.0496222 0)
(-0.316914 -0.0511474 0)
(-0.305648 -0.0525074 0)
(-0.294104 -0.0536946 0)
(-0.282318 -0.0547022 0)
(-0.270328 -0.0555242 0)
(-0.258173 -0.0561553 0)
(-0.245894 -0.056591 0)
(-0.233531 -0.0568279 0)
(-0.221127 -0.0568632 0)
(-0.208723 -0.0566954 0)
(-0.196361 -0.0563239 0)
(-0.184085 -0.0557492 0)
(-0.171935 -0.0549727 0)
(-0.159954 -0.0539972 0)
(-0.148182 -0.0528262 0)
(-0.13666 -0.0514648 0)
(-0.125426 -0.049919 0)
(-0.114519 -0.0481958 0)
(-0.103974 -0.0463038 0)
(-0.0938248 -0.0442523 0)
(-0.0841041 -0.0420522 0)
(-0.0748413 -0.0397152 0)
(-0.0660635 -0.0372547 0)
(-0.0577949 -0.0346849 0)
(-0.0500566 -0.0320215 0)
(-0.0428663 -0.0292817 0)