/*--------------------------------*- C++ -*----------------------------------*\
  =========                 |
  \\      /  F ield         | OpenFOAM: The Open Source CFD Toolbox
   \\    /   O peration     | Website:  https://openfoam.org
    \\  /    A nd           | Version:  9
     \\/     M anipulation  |
\*---------------------------------------------------------------------------*/
FoamFile
{
    format      ascii;
    class       volScalarField;
    location    "0.1";
    object      p;
}
// * * * * * * * * * * * * * * * * * * * * * * * * * * * * * * * * * * * * * //

dimensions      [0 2 -2 0 0 0 0];

internalField   nonuniform List<scalar> 
16384
(
-7.54008e-08
0.00101912
-0.000113503
-0.00388214
-0.0100455
-0.0183065
-0.0283228
-0.0397397
-0.0522252
-0.0654797
-0.0792413
-0.0932812
-0.107396
-0.121412
-0.135176
-0.14856
-0.161453
-0.17376
-0.185401
-0.196309
-0.206427
-0.21571
-0.224122
-0.23163
-0.238208
-0.243836
-0.248497
-0.252181
-0.254876
-0.256574
-0.25727
-0.256959
-0.255639
-0.253306
-0.249959
-0.245598
-0.240223
-0.233836
-0.226437
-0.218027
-0.208609
-0.198189
-0.186771
-0.174365
-0.160975
-0.146612
-0.131286
-0.115011
-0.0978034
-0.079681
-0.0606646
-0.0407785
-0.0200498
0.00149135
0.0238112
0.0468724
0.0706349
0.0950544
0.120082
0.145665
0.171747
0.198269
0.225168
0.252376
0.279822
0.307429
0.335119
0.362814
0.39043
0.417883
0.445083
0.471941
0.498366
0.52427
0.54956
0.574147
0.59794
0.620852
0.642797
0.663691
0.683454
0.702006
0.719274
0.735188
0.749688
0.762716
0.774225
0.784172
0.79252
0.799238
0.804308
0.807717
0.809465
0.809558
0.808012
0.80485
0.800107
0.793825
0.786056
0.776865
0.766322
0.754511
0.74152
0.727449
0.712404
0.696499
0.679856
0.662603
0.644878
0.626825
0.608597
0.590351
0.572252
0.55447
0.53718
0.520563
0.504805
0.490099
0.476642
0.46463
0.45426
0.445719
0.439173
0.434744
0.432465
0.432217
0.433637
0.435726
-0.00129701
-0.000291313
-0.00151708
-0.00502859
-0.0105256
-0.0177957
-0.0265993
-0.0366675
-0.0477297
-0.0595344
-0.0718528
-0.0844784
-0.0972279
-0.109939
-0.122469
-0.134693
-0.146504
-0.157809
-0.168528
-0.178592
-0.187945
-0.196538
-0.204333
-0.211294
-0.217394
-0.222609
-0.226922
-0.230317
-0.232781
-0.234305
-0.23488
-0.234502
-0.233166
-0.230867
-0.227602
-0.223371
-0.218173
-0.212008
-0.204877
-0.196781
-0.187722
-0.177705
-0.166738
-0.154826
-0.141976
-0.128196
-0.1135
-0.0979008
-0.0814137
-0.0640556
-0.045848
-0.0268153
-0.00698429
0.0136161
0.0349537
0.0569927
0.0796938
0.103014
0.126906
0.151319
0.176199
0.20149
0.227132
0.25306
0.279205
0.305496
0.331857
0.358213
0.384488
0.410599
0.436464
0.461996
0.487111
0.511724
0.535749
0.5591
0.581694
0.603449
0.624284
0.644119
0.66288
0.680493
0.696888
0.712002
0.725777
0.738163
0.749113
0.758588
0.766553
0.772984
0.777861
0.781177
0.78293
0.783128
0.781788
0.778934
0.774598
0.768821
0.761655
0.75316
0.743407
0.732473
0.720445
0.707416
0.693489
0.67877
0.663375
0.647427
0.631054
0.614394
0.597589
0.580788
0.564144
0.547814
0.531959
0.516746
0.502341
0.488918
0.476646
0.465697
0.456229
0.44839
0.4423
0.438035
0.435587
0.43485
0.435723
0.437814
-0.000601149
0.000561474
-0.00061817
-0.00395067
-0.00903883
-0.0156894
-0.0237056
-0.0328628
-0.0429353
-0.0537058
-0.0649714
-0.0765463
-0.0882654
-0.0999781
-0.111551
-0.122867
-0.133822
-0.144327
-0.154304
-0.163685
-0.172412
-0.18044
-0.187726
-0.194235
-0.199936
-0.204807
-0.208828
-0.211982
-0.214252
-0.21563
-0.216106
-0.215674
-0.214327
-0.212061
-0.20887
-0.204755
-0.199714
-0.193745
-0.186848
-0.179026
-0.17028
-0.160616
-0.15004
-0.138556
-0.126172
-0.112897
-0.0987439
-0.0837255
-0.067856
-0.0511519
-0.0336348
-0.0153289
0.00373973
0.0235433
0.044051
0.0652281
0.0870362
0.109434
0.132374
0.155809
0.179688
0.203955
0.228554
0.253422
0.278493
0.303696
0.328963
0.354221
0.379395
0.404408
0.42918
0.453631
0.477678
0.50124
0.524235
0.546584
0.568207
0.589025
0.608961
0.627942
0.645894
0.662748
0.678439
0.692907
0.706098
0.717965
0.728463
0.737556
0.745211
0.751406
0.756123
0.759357
0.761108
0.761383
0.7602
0.757582
0.75356
0.748176
0.741479
0.733528
0.72439
0.714141
0.702865
0.690651
0.677595
0.663802
0.64938
0.634447
0.619125
0.603545
0.587841
0.572155
0.556628
0.541409
0.526647
0.512493
0.499103
0.486631
0.475231
0.465051
0.456231
0.448893
0.443138
0.439032
0.436572
0.435706
0.43659
0.439239
0.00272257
0.00370002
0.00240238
-0.000906041
-0.00581311
-0.0121291
-0.0196705
-0.0282385
-0.0376373
-0.0476757
-0.0581729
-0.0689622
-0.0798933
-0.0908292
-0.101646
-0.112233
-0.122492
-0.13234
-0.141702
-0.15051
-0.158711
-0.166259
-0.17311
-0.17923
-0.184588
-0.189162
-0.192929
-0.195873
-0.197976
-0.199229
-0.199621
-0.199146
-0.197795
-0.195561
-0.192443
-0.188438
-0.183544
-0.177758
-0.171079
-0.16351
-0.155053
-0.145713
-0.135494
-0.124402
-0.112444
-0.0996281
-0.0859669
-0.0714733
-0.0561606
-0.0400452
-0.023148
-0.00549243
0.0128965
0.0319921
0.0517643
0.0721792
0.0931996
0.114785
0.136891
0.159472
0.182477
0.205854
0.229548
0.253498
0.277641
0.30191
0.326237
0.350552
0.374785
0.398861
0.422703
0.446234
0.469375
0.492047
0.514173
0.535676
0.55648
0.57651
0.595692
0.613955
0.631229
0.647447
0.662547
0.676475
0.689177
0.700608
0.710727
0.719497
0.72689
0.732883
0.737462
0.740621
0.742362
0.742692
0.741629
0.739194
0.735421
0.730348
0.724024
0.716507
0.707861
0.698161
0.687486
0.675923
0.663566
0.650512
0.636867
0.622743
0.608257
0.593534
0.578702
0.563893
0.549243
0.53489
0.520972
0.507632
0.495012
0.483255
0.4725
0.462882
0.454526
0.447545
0.442034
0.438065
0.435656
0.434809
0.435854
0.439016
0.00854167
0.00888409
0.00720255
0.00373057
-0.00117832
-0.00734357
-0.0145968
-0.0227618
-0.0316641
-0.0411362
-0.0510187
-0.0611639
-0.0714353
-0.0817085
-0.0918699
-0.101817
-0.111461
-0.120722
-0.129526
-0.137815
-0.145534
-0.152639
-0.159088
-0.164846
-0.169885
-0.174181
-0.177712
-0.180459
-0.182406
-0.183545
-0.183863
-0.183351
-0.182001
-0.179807
-0.176766
-0.172874
-0.168129
-0.162527
-0.156067
-0.148753
-0.140585
-0.131567
-0.121703
-0.111
-0.0994624
-0.0870998
-0.073923
-0.0599445
-0.045177
-0.0296369
-0.0133441
0.00367885
0.0214086
0.0398196
0.0588822
0.0785632
0.0988269
0.119634
0.140944
0.16271
0.184884
0.207416
0.230253
0.253336
0.276605
0.299994
0.323438
0.346871
0.370225
0.393427
0.416404
0.439081
0.46138
0.483227
0.504549
0.525271
0.545321
0.564626
0.583115
0.600717
0.617367
0.633002
0.647562
0.660994
0.673247
0.684279
0.694048
0.702521
0.70967
0.715475
0.719922
0.723007
0.724731
0.725103
0.724139
0.721862
0.718302
0.713499
0.707501
0.700363
0.692148
0.682928
0.67278
0.661788
0.650041
0.637635
0.624669
0.611251
0.597494
0.583516
0.569438
0.555388
0.54149
0.527876
0.514676
0.502021
0.490044
0.478876
0.468646
0.459476
0.451483
0.444774
0.43944
0.435562
0.433177
0.432324
0.433426
0.436801
0.0165699
0.0159329
0.0136266
0.00980261
0.00471602
-0.00147164
-0.00860802
-0.0165366
-0.0251039
-0.0341634
-0.0435752
-0.0532086
-0.0629422
-0.0726635
-0.0822692
-0.0916667
-0.100774
-0.109516
-0.117827
-0.125649
-0.132935
-0.139637
-0.145719
-0.151147
-0.155893
-0.159934
-0.163248
-0.165815
-0.167622
-0.168658
-0.168912
-0.168371
-0.16703
-0.164882
-0.161923
-0.158149
-0.153555
-0.148139
-0.1419
-0.13484
-0.12696
-0.118261
-0.108749
-0.098429
-0.087306
-0.0753883
-0.0626861
-0.0492108
-0.0349749
-0.019994
-0.00428719
0.0121245
0.0292185
0.0469704
0.0653517
0.0843303
0.103872
0.123939
0.144491
0.165485
0.186873
0.208609
0.23064
0.25291
0.275361
0.297928
0.32055
0.343163
0.365702
0.388096
0.410274
0.432162
0.453687
0.474777
0.495362
0.515371
0.534732
0.553376
0.571231
0.588233
0.604316
0.619421
0.63349
0.646472
0.658319
0.668986
0.678436
0.686637
0.693563
0.699194
0.703518
0.70653
0.708232
0.708633
0.707749
0.705602
0.702223
0.697651
0.69193
0.685117
0.677273
0.668467
0.658773
0.648273
0.637051
0.6252
0.612817
0.600004
0.58687
0.573526
0.56009
0.546679
0.533415
0.520418
0.507812
0.49572
0.484263
0.473565
0.463744
0.454914
0.447185
0.440657
0.435424
0.431568
0.429141
0.428205
0.429209
0.43249
0.0264769
0.0246142
0.0214895
0.0171489
0.0117216
0.00535089
-0.00182464
-0.00966983
-0.0180522
-0.0268433
-0.0359205
-0.045169
-0.0544824
-0.0637596
-0.0729088
-0.0818462
-0.0904959
-0.0987918
-0.106674
-0.114088
-0.120989
-0.127334
-0.133088
-0.13822
-0.142703
-0.146515
-0.149633
-0.152041
-0.153725
-0.154673
-0.154874
-0.154315
-0.152992
-0.150897
-0.148025
-0.144372
-0.139933
-0.134705
-0.128687
-0.12188
-0.114285
-0.105903
-0.0967373
-0.0867932
-0.0760759
-0.0645924
-0.0523521
-0.0393658
-0.0256449
-0.011204
0.00393884
0.0197636
0.0362486
0.0533706
0.0711028
0.0894144
0.108272
0.127639
0.147478
0.167745
0.188398
0.20939
0.230671
0.252185
0.273877
0.295685
0.317549
0.339408
0.361199
0.382854
0.404302
0.425472
0.446293
0.466698
0.486617
0.505982
0.524723
0.54277
0.560058
0.57652
0.592095
0.606726
0.620357
0.632937
0.644418
0.654759
0.663924
0.67188
0.678604
0.684076
0.688286
0.691228
0.692904
0.693323
0.6925
0.690458
0.687228
0.682846
0.677358
0.670817
0.663283
0.654823
0.64551
0.635422
0.624641
0.613255
0.601358
0.589049
0.576432
0.563613
0.550704
0.537817
0.525067
0.512567
0.500434
0.488782
0.477727
0.467381
0.457855
0.449258
0.441692
0.435253
0.430033
0.426117
0.423564
0.422447
0.423195
0.426123
0.0379272
0.0346657
0.0305742
0.0255794
0.0196716
0.0129797
0.00562894
-0.00226654
-0.0105942
-0.019243
-0.0281068
-0.037085
-0.0460842
-0.0550163
-0.0637992
-0.0723591
-0.0806281
-0.0885464
-0.0960608
-0.103122
-0.109687
-0.115718
-0.121183
-0.126054
-0.130304
-0.133912
-0.136859
-0.139128
-0.140707
-0.141583
-0.141743
-0.141178
-0.139882
-0.137849
-0.135071
-0.131544
-0.127263
-0.122225
-0.11643
-0.109877
-0.102565
-0.094496
-0.0856724
-0.0760985
-0.065779
-0.0547201
-0.0429301
-0.0304187
-0.0171967
-0.00327756
0.0113217
0.0265821
0.0424836
0.0590043
0.0761186
0.0937966
0.112006
0.130712
0.149879
0.169465
0.18943
0.209728
0.23031
0.251123
0.272112
0.29322
0.314388
0.335557
0.356665
0.377645
0.398429
0.418947
0.439133
0.458919
0.47824
0.497026
0.515211
0.532727
0.549507
0.565489
0.580613
0.594823
0.608065
0.620288
0.631446
0.641498
0.650409
0.658148
0.664691
0.67002
0.674125
0.677
0.678647
0.679074
0.678297
0.676338
0.673227
0.668999
0.663701
0.657383
0.650105
0.641931
0.632931
0.623181
0.612761
0.601756
0.590256
0.578357
0.566158
0.553762
0.541275
0.528803
0.516457
0.504343
0.492571
0.481248
0.470482
0.460379
0.451044
0.442578
0.435079
0.428637
0.423342
0.419278
0.416507
0.415105
0.415454
0.417816
0.0506078
0.0458313
0.0406597
0.0348999
0.028398
0.0212687
0.0136257
0.00556408
-0.00282194
-0.0114391
-0.0201955
-0.0290044
-0.0377846
-0.0464609
-0.054961
-0.0632187
-0.0711768
-0.078783
-0.0859881
-0.0927478
-0.0990239
-0.104784
-0.109999
-0.114642
-0.118689
-0.122121
-0.124921
-0.127073
-0.128565
-0.129384
-0.129518
-0.12896
-0.127703
-0.12574
-0.123064
-0.119669
-0.115551
-0.110707
-0.105137
-0.0988377
-0.0918089
-0.0840501
-0.0755644
-0.0663556
-0.0564273
-0.0457842
-0.0344335
-0.0223838
-0.0096454
0.00376885
0.0178434
0.032561
0.0479035
0.0638501
0.0803756
0.0974514
0.115047
0.133128
0.151662
0.170611
0.189932
0.209584
0.229517
0.24968
0.270021
0.290485
0.311015
0.331553
0.352039
0.372406
0.392589
0.41252
0.432134
0.451366
0.470152
0.488423
0.506114
0.523157
0.539489
0.555047
0.569775
0.583615
0.596516
0.608426
0.619301
0.6291
0.637788
0.645336
0.65172
0.656923
0.660934
0.663746
0.665363
0.665791
0.665046
0.663151
0.660132
0.656028
0.650881
0.644743
0.637669
0.629724
0.620975
0.611496
0.601364
0.590662
0.579477
0.5679
0.556029
0.543961
0.531797
0.519642
0.507597
0.495766
0.484251
0.473152
0.462573
0.452612
0.443369
0.43494
0.427415
0.420882
0.415425
0.411126
0.408046
0.406261
0.406085
0.407719
0.0642346
0.0578675
0.0515332
0.0449216
0.0377343
0.0300714
0.0220376
0.0137109
0.00516716
-0.00351374
-0.0122555
-0.0209851
-0.0296328
-0.0381329
-0.0464246
-0.054452
-0.0621656
-0.0695192
-0.0764693
-0.0829774
-0.0890112
-0.0945423
-0.0995443
-0.103993
-0.107867
-0.11115
-0.113828
-0.115885
-0.117309
-0.118088
-0.118212
-0.117675
-0.116468
-0.114585
-0.112018
-0.108762
-0.104813
-0.100169
-0.0948264
-0.0887831
-0.0820367
-0.0745869
-0.0664364
-0.0575884
-0.0480449
-0.0378091
-0.0268872
-0.0152872
-0.00301864
0.00990658
0.0234749
0.037671
0.0524779
0.0678757
0.0838402
0.100344
0.117357
0.13485
0.15279
0.171141
0.189863
0.208912
0.228243
0.247807
0.267552
0.287426
0.307374
0.327338
0.347259
0.367073
0.386715
0.40612
0.425224
0.443964
0.462276
0.480093
0.497349
0.513978
0.529917
0.545107
0.55949
0.573011
0.585617
0.597258
0.607889
0.617471
0.625968
0.633352
0.6396
0.644694
0.648621
0.651378
0.652965
0.65339
0.652667
0.650818
0.647871
0.643861
0.638832
0.632832
0.625918
0.61815
0.609595
0.600324
0.590412
0.579941
0.568994
0.557659
0.546031
0.534203
0.522273
0.510341
0.498503
0.486858
0.475502
0.464532
0.454043
0.44413
0.434887
0.426404
0.418767
0.412058
0.406356
0.401738
0.398266
0.396009
0.395206
0.395987
0.0785482
0.0705452
0.062992
0.0554631
0.0475174
0.0392428
0.030736
0.0220601
0.0132753
0.00444662
-0.00436257
-0.0130911
-0.0216816
-0.0300786
-0.0382312
-0.0460934
-0.0536226
-0.0607788
-0.0675252
-0.0738299
-0.0796657
-0.0850078
-0.0898328
-0.0941197
-0.0978518
-0.101015
-0.103595
-0.105579
-0.106954
-0.107711
-0.107843
-0.10734
-0.106196
-0.104403
-0.101955
-0.0988464
-0.0950745
-0.0906349
-0.0855237
-0.0797376
-0.0732741
-0.0661332
-0.0583166
-0.0498256
-0.0406607
-0.0308242
-0.0203215
-0.00916049
0.00265074
0.0151022
0.028182
0.0418768
0.0561704
0.0710435
0.0864728
0.102432
0.118896
0.135835
0.153218
0.17101
0.189173
0.207663
0.226437
0.245449
0.264648
0.283984
0.303403
0.322848
0.34226
0.361578
0.380737
0.399674
0.418328
0.436636
0.454533
0.471953
0.488831
0.505103
0.520705
0.53558
0.54967
0.56292
0.575277
0.586691
0.597118
0.606518
0.614856
0.622104
0.628239
0.633241
0.637101
0.63981
0.64137
0.641789
0.64108
0.639265
0.63637
0.63243
0.627488
0.621592
0.614794
0.607157
0.598744
0.589624
0.579871
0.569564
0.558784
0.547617
0.536153
0.524484
0.512704
0.500908
0.489188
0.477639
0.466353
0.45542
0.444933
0.43498
0.425651
0.417029
0.409198
0.402233
0.396209
0.391195
0.387254
0.384449
0.382936
0.382772
0.0933119
0.0836526
0.0748447
0.0663498
0.0575874
0.0486386
0.0395933
0.0304976
0.0214006
0.0123529
0.00340566
-0.00539114
-0.013991
-0.0223499
-0.0304265
-0.0381824
-0.0455819
-0.0525922
-0.0591838
-0.0653306
-0.07101
-0.0762011
-0.0808842
-0.0850426
-0.0886631
-0.0917335
-0.0942412
-0.0961735
-0.0975206
-0.0982755
-0.0984306
-0.0979779
-0.0969095
-0.0952185
-0.0928993
-0.0899482
-0.0863609
-0.0821319
-0.0772559
-0.0717299
-0.0655517
-0.0587204
-0.0512364
-0.043099
-0.0343075
-0.0248635
-0.014772
-0.00404015
0.00732563
0.0193177
0.0319262
0.0451385
0.0589393
0.0733101
0.0882291
0.103673
0.119616
0.136034
0.152895
0.170166
0.187807
0.20578
0.224041
0.242546
0.261248
0.280096
0.299037
0.318014
0.336971
0.355847
0.374579
0.393107
0.411367
0.429299
0.446838
0.463918
0.480474
0.496443
0.511762
0.526374
0.540221
0.553248
0.565401
0.576632
0.586894
0.596148
0.60436
0.611501
0.617546
0.622478
0.626284
0.628957
0.630496
0.63091
0.63021
0.628418
0.625559
0.621669
0.616788
0.610963
0.604246
0.596697
0.588378
0.579358
0.569708
0.559503
0.548825
0.537756
0.526384
0.514799
0.50309
0.49135
0.479667
0.46813
0.456829
0.44585
0.435281
0.425206
0.415709
0.406871
0.398769
0.391474
0.385055
0.379577
0.375098
0.37168
0.369392
0.368219
0.108316
0.096994
0.0869085
0.0774141
0.0677927
0.0581195
0.0484809
0.0389098
0.0294407
0.0201131
0.0109675
0.00204238
-0.00662653
-0.0150057
-0.023062
-0.030764
-0.0380839
-0.0449963
-0.0514787
-0.0575102
-0.0630724
-0.0681487
-0.0727243
-0.076787
-0.0803259
-0.0833303
-0.0857892
-0.0876927
-0.0890335
-0.0898059
-0.0900022
-0.0896143
-0.0886351
-0.087059
-0.0848812
-0.0820977
-0.078703
-0.0746906
-0.0700553
-0.0647939
-0.0589041
-0.0523838
-0.0452315
-0.037445
-0.0290227
-0.0199659
-0.0102791
3.25196e-05
0.0109643
0.0225108
0.0346635
0.0474106
0.0607375
0.0746271
0.0890595
0.104013
0.119466
0.135394
0.151766
0.168549
0.185707
0.203201
0.220992
0.239035
0.257285
0.275692
0.294203
0.312764
0.331317
0.349804
0.368163
0.386336
0.404258
0.42187
0.439105
0.4559
0.472188
0.487908
0.502997
0.517397
0.531051
0.543902
0.555897
0.566986
0.577124
0.586269
0.594388
0.601452
0.607434
0.612317
0.616087
0.618735
0.620262
0.620673
0.619981
0.618205
0.615372
0.611515
0.606673
0.600891
0.594222
0.586724
0.578457
0.569489
0.559889
0.549732
0.539096
0.528062
0.516715
0.505144
0.493434
0.481674
0.469951
0.45835
0.446955
0.435852
0.425123
0.414849
0.40511
0.395983
0.387538
0.379844
0.372966
0.36696
0.361885
0.3578
0.354686
0.352456
0.12337
0.110389
0.0990155
0.0884978
0.0779863
0.0675512
0.0572764
0.0471828
0.0372927
0.027635
0.0182393
0.00913322
0.00034243
-0.00810806
-0.0161928
-0.0238881
-0.0311742
-0.0380335
-0.0444488
-0.0504041
-0.0558859
-0.060883
-0.0653853
-0.0693836
-0.0728691
-0.0758332
-0.0782678
-0.0801663
-0.0815229
-0.0823322
-0.0825869
-0.0822795
-0.0814046
-0.0799576
-0.0779341
-0.0753288
-0.0721352
-0.0683467
-0.0639586
-0.0589676
-0.0533703
-0.0471627
-0.0403418
-0.0329044
-0.0248487
-0.0161752
-0.00688711
0.00301226
0.0135206
0.024634
0.036345
0.0486427
0.0615132
0.0749414
0.0889098
0.103399
0.118389
0.133855
0.149769
0.166099
0.182809
0.199862
0.217222
0.234845
0.252687
0.270698
0.288826
0.307018
0.325218
0.343367
0.361407
0.379277
0.396915
0.414259
0.431245
0.447808
0.463882
0.479406
0.494316
0.508555
0.522065
0.534788
0.54667
0.557661
0.567714
0.576788
0.584849
0.591866
0.597814
0.602671
0.606424
0.609064
0.610589
0.611004
0.610321
0.608559
0.605743
0.601905
0.597083
0.591322
0.584673
0.577192
0.56894
0.559982
0.550386
0.540225
0.529576
0.518519
0.507137
0.495514
0.483736
0.471888
0.460053
0.448315
0.436755
0.425454
0.414493
0.403949
0.393898
0.384412
0.37556
0.367405
0.360007
0.353418
0.347696
0.342898
0.33892
0.335601
0.1383
0.123671
0.111007
0.0994527
0.0880292
0.0768044
0.06586
0.0552063
0.0448549
0.034825
0.0251348
0.015802
0.00684406
-0.00172165
-0.00987783
-0.0176095
-0.0249045
-0.031751
-0.0381373
-0.0440527
-0.0494896
-0.054442
-0.0589034
-0.0628668
-0.0663261
-0.0692757
-0.0717113
-0.0736285
-0.0750224
-0.075888
-0.0762189
-0.076009
-0.0752545
-0.0739518
-0.0720954
-0.0696791
-0.066696
-0.0631402
-0.0590072
-0.054293
-0.0489925
-0.0431001
-0.0366115
-0.0295229
-0.0218322
-0.0135391
-0.00464483
0.00484966
0.0149439
0.0256353
0.0369171
0.0487793
0.06121
0.0741957
0.0877213
0.10177
0.116322
0.131354
0.146839
0.162746
0.179042
0.195692
0.212659
0.229902
0.247378
0.265036
0.282827
0.300696
0.318591
0.336452
0.354223
0.371842
0.389247
0.406377
0.423166
0.439549
0.455462
0.470841
0.485625
0.499754
0.513168
0.52581
0.537625
0.54856
0.55857
0.567613
0.575652
0.582655
0.588597
0.593455
0.597213
0.599862
0.601399
0.601827
0.601158
0.59941
0.596607
0.592779
0.587964
0.582205
0.575552
0.568061
0.55979
0.550804
0.54117
0.53096
0.520248
0.509115
0.49764
0.485907
0.473998
0.461997
0.449985
0.438043
0.42625
0.414684
0.403422
0.392541
0.382113
0.372206
0.362886
0.354213
0.346242
0.33902
0.332606
0.327058
0.322185
0.317757
0.152944
0.136685
0.122734
0.110137
0.0977877
0.0857529
0.0741136
0.0628707
0.0520261
0.0415881
0.0315655
0.0219679
0.0128048
0.00408549
-0.00418131
-0.0119884
-0.01933
-0.0261999
-0.0325922
-0.0385025
-0.0439287
-0.0488686
-0.0533188
-0.0572753
-0.0607352
-0.0636968
-0.0661586
-0.0681175
-0.0695696
-0.070511
-0.0709367
-0.0708426
-0.0702258
-0.0690822
-0.0674057
-0.06519
-0.0624286
-0.0591156
-0.0552464
-0.0508158
-0.045817
-0.0402431
-0.0340888
-0.0273504
-0.0200247
-0.0121099
-0.00360502
0.005491
0.0151791
0.0254577
0.0363212
0.0477609
0.0597666
0.0723274
0.0854304
0.0990599
0.113198
0.127821
0.142905
0.15842
0.174334
0.190614
0.207225
0.224127
0.241276
0.258623
0.276119
0.293712
0.311347
0.32897
0.34652
0.363938
0.381162
0.398128
0.414771
0.431027
0.446831
0.462118
0.476827
0.490895
0.504262
0.516871
0.528665
0.53959
0.549599
0.55865
0.566704
0.573729
0.579696
0.584583
0.588371
0.59105
0.592615
0.593069
0.592423
0.590693
0.587902
0.584079
0.57926
0.573489
0.566813
0.559287
0.550969
0.541922
0.532213
0.521913
0.511094
0.499836
0.488217
0.476318
0.464222
0.452008
0.439758
0.427549
0.415459
0.403565
0.391941
0.380661
0.369794
0.359408
0.349565
0.340321
0.331727
0.323828
0.316685
0.310355
0.304565
0.299013
0.167153
0.149285
0.134057
0.120416
0.107133
0.0942746
0.081923
0.0700687
0.058704
0.0478281
0.0374425
0.0275488
0.018148
0.00924124
0.000828966
-0.00708793
-0.0145094
-0.0214356
-0.027867
-0.0338052
-0.039252
-0.0442091
-0.0486761
-0.0526527
-0.0561401
-0.0591398
-0.0616521
-0.0636751
-0.0652062
-0.0662434
-0.0667837
-0.0668244
-0.0663623
-0.0653928
-0.0639099
-0.0619075
-0.0593798
-0.0563208
-0.0527249
-0.0485853
-0.0438938
-0.0386428
-0.0328267
-0.026441
-0.0194812
-0.0119435
-0.00382486
0.00487765
0.0141662
0.0240398
0.0344943
0.0455229
0.0571177
0.0692699
0.0819683
0.0951987
0.108944
0.123183
0.137892
0.153042
0.168604
0.184548
0.200838
0.217435
0.234295
0.251372
0.268615
0.285974
0.303396
0.320826
0.338204
0.35547
0.372561
0.389414
0.405963
0.422144
0.43789
0.453136
0.46782
0.481878
0.495249
0.507873
0.519692
0.530653
0.540705
0.549805
0.557914
0.564998
0.571024
0.57597
0.579815
0.582547
0.584161
0.584658
0.584046
0.582342
0.579565
0.575746
0.570919
0.565125
0.558411
0.550831
0.542442
0.533306
0.52349
0.513062
0.502096
0.490668
0.478857
0.466743
0.454406
0.441926
0.42938
0.416846
0.404401
0.39212
0.380075
0.368338
0.356977
0.346058
0.335639
0.325775
0.316515
0.3079
0.299993
0.292854
0.286128
0.279446
0.18079
0.161336
0.144843
0.130161
0.115942
0.102253
0.0891757
0.0766928
0.0647871
0.0534507
0.0426778
0.0324616
0.0227948
0.0136706
0.00508291
-0.00297346
-0.0105047
-0.0175178
-0.0240192
-0.0300152
-0.0355116
-0.0405133
-0.0450238
-0.0490474
-0.0525885
-0.0556512
-0.0582373
-0.0603464
-0.0619781
-0.063132
-0.063807
-0.064001
-0.0637108
-0.0629311
-0.0616563
-0.0598812
-0.0576003
-0.0548071
-0.0514943
-0.0476539
-0.0432768
-0.0383548
-0.0328819
-0.0268524
-0.0202604
-0.0130997
-0.00536518
0.00294721
0.0118406
0.0213155
0.0313692
0.0419971
0.0531935
0.0649516
0.0772619
0.0901115
0.103484
0.117361
0.131718
0.146531
0.161771
0.177409
0.19341
0.209736
0.226345
0.243189
0.26022
0.277388
0.294641
0.311923
0.329176
0.346337
0.363345
0.380134
0.396639
0.412795
0.428535
0.443792
0.458502
0.472601
0.486026
0.498714
0.510607
0.52165
0.531791
0.540985
0.54919
0.55637
0.562493
0.567531
0.571463
0.574276
0.575961
0.57652
0.575958
0.57429
0.571537
0.567724
0.562887
0.557063
0.550301
0.542652
0.534173
0.524924
0.514972
0.504385
0.493236
0.481599
0.469554
0.457178
0.444552
0.431754
0.41886
0.405948
0.393093
0.38037
0.367849
0.355601
0.343694
0.33219
0.321148
0.31062
0.300653
0.291284
0.282584
0.274614
0.266937
0.259118
0.193724
0.172709
0.154966
0.13925
0.124097
0.109574
0.0957623
0.0826384
0.070177
0.0583631
0.0471829
0.0366216
0.0266642
0.0172974
0.00850883
0.000286839
-0.00738168
-0.0145098
-0.0211091
-0.02719
-0.0327621
-0.0378343
-0.0424148
-0.0465113
-0.0501313
-0.0532808
-0.0559632
-0.0581807
-0.0599345
-0.0612265
-0.0620567
-0.0624227
-0.0623211
-0.0617475
-0.0606969
-0.0591642
-0.0571438
-0.0546284
-0.0516095
-0.0480777
-0.0440232
-0.0394377
-0.0343145
-0.028646
-0.0224242
-0.0156413
-0.00829066
-0.000366861
0.0081346
0.0172156
0.0268752
0.0371112
0.0479201
0.059297
0.0712337
0.0837187
0.0967371
0.110271
0.1243
0.1388
0.153746
0.169106
0.18485
0.200939
0.21733
0.233978
0.250836
0.267854
0.28498
0.302158
0.319331
0.336434
0.353406
0.37018
0.386692
0.402874
0.418658
0.433978
0.448767
0.462958
0.476487
0.48929
0.501307
0.51248
0.522757
0.53209
0.540435
0.547753
0.554011
0.559178
0.563231
0.566154
0.567938
0.568582
0.56809
0.566474
0.563754
0.559956
0.55511
0.549257
0.54244
0.534711
0.526127
0.516746
0.506634
0.49586
0.484496
0.472616
0.460297
0.447619
0.434659
0.421496
0.408207
0.394867
0.381551
0.368333
0.355285
0.342477
0.329973
0.317838
0.306127
0.294893
0.28418
0.274026
0.264505
0.255682
0.247042
0.238083
0.205831
0.183282
0.164306
0.147567
0.131484
0.116126
0.101576
0.0878041
0.074777
0.0624724
0.0508685
0.0399433
0.0296752
0.0200447
0.0110334
0.00262202
-0.00520876
-0.0124773
-0.0191993
-0.0253892
-0.0310614
-0.0362293
-0.0409049
-0.0450991
-0.0488219
-0.0520809
-0.0548821
-0.0572299
-0.0591282
-0.0605799
-0.061585
-0.0621415
-0.0622465
-0.0618963
-0.0610864
-0.0598121
-0.058067
-0.0558423
-0.0531285
-0.0499157
-0.0461939
-0.0419539
-0.0371875
-0.0318855
-0.0260381
-0.0196356
-0.01267
-0.00513453
0.0029764
0.0116665
0.0209372
0.0307887
0.0412194
0.0522259
0.0638015
0.075936
0.0886165
0.101827
0.115548
0.129759
0.144434
0.159545
0.17506
0.190942
0.207149
0.223637
0.240359
0.257266
0.274306
0.291424
0.30856
0.325651
0.342634
0.359442
0.376009
0.392268
0.408149
0.423583
0.438502
0.452837
0.466522
0.479492
0.491684
0.503039
0.513501
0.523021
0.531552
0.539053
0.545488
0.550823
0.555034
0.558101
0.560014
0.560769
0.56037
0.558827
0.556156
0.552383
0.547537
0.541655
0.534783
0.526968
0.518268
0.50874
0.49845
0.487466
0.475859
0.463705
0.451079
0.43806
0.424726
0.411155
0.397425
0.383611
0.369787
0.356028
0.342405
0.328987
0.315841
0.303029
0.290607
0.278628
0.267134
0.256164
0.245796
0.2361
0.226485
0.216382
0.216994
0.192939
0.172749
0.154997
0.137992
0.121802
0.106515
0.0920908
0.0784913
0.0656856
0.0536451
0.0423414
0.0317468
0.0218352
0.0125812
0.00395909
-0.00405592
-0.0114867
-0.0183534
-0.024675
-0.0304705
-0.0357579
-0.0405525
-0.0448679
-0.0487158
-0.0521067
-0.0550493
-0.0575502
-0.0596148
-0.061247
-0.0624471
-0.0632131
-0.0635431
-0.0634345
-0.0628832
-0.0618838
-0.0604287
-0.0585084
-0.0561127
-0.0532311
-0.049853
-0.0459684
-0.0415674
-0.036639
-0.0311713
-0.0251533
-0.0185756
-0.0114303
-0.00371025
0.00459059
0.0134762
0.0229487
0.0330083
0.0436532
0.0548781
0.0666746
0.0790316
0.091935
0.105368
0.11931
0.133738
0.148625
0.163938
0.179642
0.195697
0.212058
0.228679
0.245513
0.262508
0.279606
0.296749
0.313872
0.330912
0.347802
0.364475
0.380861
0.396889
0.41249
0.427591
0.442124
0.45602
0.46921
0.48163
0.493219
0.503918
0.513675
0.522442
0.530173
0.536829
0.542375
0.546783
0.550032
0.552109
0.553007
0.552728
0.551281
0.54868
0.544947
0.540112
0.53421
0.527284
0.519382
0.51056
0.500875
0.490392
0.479179
0.467307
0.454851
0.441888
0.428495
0.41475
0.400733
0.38652
0.372188
0.357813
0.343467
0.329224
0.315153
0.301321
0.287789
0.274616
0.261853
0.249544
0.237728
0.226488
0.215902
0.2053
0.19405
0.2271
0.201567
0.180182
0.161431
0.143514
0.1265
0.110477
0.0954012
0.0812246
0.0679106
0.0554244
0.0437317
0.0327979
0.0225899
0.0130757
0.00422439
-0.00399369
-0.0116059
-0.0186372
-0.0251117
-0.031053
-0.0364826
-0.0414184
-0.0458765
-0.0498716
-0.0534168
-0.0565231
-0.0591995
-0.0614524
-0.0632858
-0.0647005
-0.0656957
-0.0662705
-0.0664227
-0.066148
-0.0654403
-0.0642911
-0.0626901
-0.0606265
-0.0580893
-0.0550676
-0.0515497
-0.0475239
-0.0429773
-0.0378964
-0.0322689
-0.0260842
-0.0193328
-0.0120053
-0.00409357
0.00440864
0.0135055
0.0231991
0.033489
0.0443718
0.0558407
0.0678867
0.080498
0.0936596
0.107353
0.121555
0.136239
0.151376
0.16693
0.182861
0.199127
0.215683
0.23248
0.249467
0.266586
0.283778
0.300978
0.318121
0.33514
0.351967
0.368531
0.384759
0.400578
0.415917
0.430701
0.444861
0.458327
0.47103
0.482907
0.493898
0.503946
0.512999
0.52101
0.527936
0.53374
0.53839
0.541862
0.544141
0.545218
0.545091
0.543767
0.54126
0.537589
0.532781
0.52687
0.519897
0.511912
0.502966
0.493118
0.482433
0.470976
0.458821
0.446041
0.432713
0.418916
0.404728
0.390229
0.375496
0.360607
0.345638
0.330664
0.315759
0.300992
0.286431
0.272139
0.258176
0.244594
0.231437
0.218746
0.206611
0.195115
0.183514
0.171109
0.23604
0.209057
0.186499
0.166765
0.147947
0.130118
0.113366
0.0976387
0.0828835
0.0690577
0.0561204
0.0440304
0.0327467
0.0222291
0.0124399
0.00334404
-0.00509293
-0.0129036
-0.0201186
-0.0267664
-0.0328741
-0.0384666
-0.0435646
-0.0481865
-0.0523502
-0.0560719
-0.0593649
-0.0622388
-0.0647009
-0.0667559
-0.0684058
-0.069651
-0.0704908
-0.0709233
-0.0709439
-0.0705456
-0.0697188
-0.068453
-0.0667369
-0.0645594
-0.061908
-0.0587693
-0.0551298
-0.0509748
-0.0462897
-0.0410609
-0.035276
-0.0289237
-0.0219924
-0.0144718
-0.00635326
0.00236938
0.0116999
0.0216394
0.0321862
0.0433359
0.0550816
0.0674136
0.0803186
0.0937793
0.107774
0.122277
0.137261
0.152689
0.168525
0.184727
0.20125
0.218045
0.235061
0.25224
0.269521
0.286841
0.304133
0.321329
0.338359
0.355151
0.37163
0.387722
0.403352
0.418444
0.432925
0.446722
0.459766
0.471989
0.483327
0.493722
0.503117
0.511462
0.518711
0.524822
0.529761
0.533502
0.536026
0.537321
0.537383
0.536216
0.533832
0.530247
0.525486
0.519583
0.512577
0.504514
0.495448
0.485437
0.474542
0.462833
0.45038
0.437257
0.423543
0.409316
0.394655
0.379641
0.364353
0.348871
0.33327
0.317629
0.30202
0.286517
0.271188
0.256097
0.241306
0.22687
0.212834
0.199239
0.186184
0.173759
0.161145
0.147578
0.243711
0.215307
0.191599
0.170898
0.151195
0.132559
0.115084
0.0987099
0.0833781
0.0690399
0.0556481
0.0431544
0.0315113
0.0206732
0.0105978
0.00124492
-0.00742545
-0.0154511
-0.0228673
-0.0297071
-0.0360008
-0.0417754
-0.0470549
-0.0518615
-0.0562158
-0.0601362
-0.0636375
-0.0667304
-0.0694227
-0.0717203
-0.0736266
-0.0751427
-0.0762686
-0.0770017
-0.0773368
-0.077266
-0.0767794
-0.0758662
-0.0745149
-0.0727133
-0.0704472
-0.0677016
-0.0644611
-0.0607096
-0.0564312
-0.0516108
-0.0462344
-0.0402885
-0.0337591
-0.0266334
-0.0189008
-0.0105533
-0.00158549
0.00800577
0.0182208
0.0290575
0.0405114
0.0525746
0.0652354
0.0784778
0.0922817
0.106623
0.121473
0.136801
0.152567
0.168733
0.185253
0.20208
0.21916
0.236437
0.253848
0.27133
0.288815
0.306234
0.323517
0.340588
0.357372
0.37379
0.389767
0.405223
0.420083
0.434271
0.447715
0.460343
0.472089
0.482889
0.492684
0.50142
0.509047
0.51552
0.520801
0.524861
0.527677
0.529234
0.529527
0.528555
0.526327
0.522858
0.518172
0.512298
0.505275
0.497148
0.487969
0.477796
0.466692
0.454724
0.441963
0.428484
0.414364
0.399684
0.384525
0.368968
0.353094
0.336983
0.320716
0.304369
0.288019
0.271741
0.255605
0.239679
0.224024
0.208699
0.193752