/*--------------------------------*- C++ -*----------------------------------*\
  =========                 |
  \\      /  F ield         | OpenFOAM: The Open Source CFD Toolbox
   \\    /   O peration     | Website:  https://openfoam.org
    \\  /    A nd           | Version:  9
     \\/     M anipulation  |
\*---------------------------------------------------------------------------*/
FoamFile
{
    format      ascii;
    class       surfaceScalarField;
    location    "0.1";
    object      phi;
}
// * * * * * * * * * * * * * * * * * * * * * * * * * * * * * * * * * * * * * //

dimensions      [0 3 -1 0 0 0 0];

internalField   nonuniform List<scalar> 
32512
(
2.73714e-10
-2.73666e-10
1.09841e-09
-8.24723e-10
2.12023e-09
-1.02183e-09
3.06463e-09
-9.44458e-10
3.76032e-09
-6.95696e-10
4.1058e-09
-3.45417e-10
4.04337e-09
6.23866e-11
3.54447e-09
4.98922e-10
2.59935e-09
9.45101e-10
1.21057e-09
1.38878e-09
-6.1114e-10
1.82167e-09
-2.84949e-09
2.23835e-09
-5.48449e-09
2.63504e-09
-8.49404e-09
3.00951e-09
-1.18543e-08
3.3603e-09
-1.55411e-08
3.68677e-09
-1.95299e-08
3.98881e-09
-2.37964e-08
4.2665e-09
-2.83166e-08
4.52025e-09
-3.30675e-08
4.75082e-09
-3.80264e-08
4.95896e-09
-4.3172e-08
5.14557e-09
-4.84835e-08
5.31159e-09
-5.39414e-08
5.4579e-09
-5.95269e-08
5.58543e-09
-6.5222e-08
5.69507e-09
-7.10096e-08
5.78767e-09
-7.68737e-08
5.86402e-09
-8.27986e-08
5.92491e-09
-8.87696e-08
5.97096e-09
-9.47722e-08
6.0026e-09
-1.00793e-07
6.02048e-09
-1.06818e-07
6.02513e-09
-1.12835e-07
6.01682e-09
-1.1883e-07
5.99583e-09
-1.24793e-07
5.96251e-09
-1.3071e-07
5.91704e-09
-1.3657e-07
5.85953e-09
-1.4236e-07
5.79016e-09
-1.48069e-07
5.70902e-09
-1.53685e-07
5.616e-09
-1.59196e-07
5.51105e-09
-1.6459e-07
5.39428e-09
-1.69856e-07
5.26569e-09
-1.74981e-07
5.12509e-09
-1.79953e-07
4.97237e-09
-1.84761e-07
4.80752e-09
-1.89391e-07
4.63055e-09
-1.93833e-07
4.44139e-09
-1.98073e-07
4.23997e-09
-2.02099e-07
4.02636e-09
-2.059e-07
3.80066e-09
-2.09463e-07
3.56296e-09
-2.12776e-07
3.31338e-09
-2.15828e-07
3.0521e-09
-2.18608e-07
2.77942e-09
-2.21103e-07
2.49568e-09
-2.23305e-07
2.20122e-09
-2.25201e-07
1.8965e-09
-2.26783e-07
1.58207e-09
-2.28042e-07
1.25851e-09
-2.28968e-07
9.26476e-10
-2.29555e-07
5.86624e-10
-2.29795e-07
2.39774e-10
-2.29681e-07
-1.13104e-10
-2.2921e-07
-4.70997e-10
-2.28378e-07
-8.32833e-10
-2.2718e-07
-1.1975e-09
-2.25616e-07
-1.56387e-09
-2.23686e-07
-1.93068e-09
-2.21389e-07
-2.29658e-09
-2.18729e-07
-2.66022e-09
-2.15709e-07
-3.02017e-09
-2.12334e-07
-3.37497e-09
-2.0861e-07
-3.72317e-09
-2.04547e-07
-4.0633e-09
-2.00153e-07
-4.39389e-09
-1.9544e-07
-4.71346e-09
-1.90419e-07
-5.02052e-09
-1.85106e-07
-5.31353e-09
-1.79515e-07
-5.59095e-09
-1.73663e-07
-5.85129e-09
-1.6757e-07
-6.09309e-09
-1.61255e-07
-6.31495e-09
-1.5474e-07
-6.51565e-09
-1.48046e-07
-6.69404e-09
-1.41197e-07
-6.84902e-09
-1.34217e-07
-6.97958e-09
-1.27132e-07
-7.08484e-09
-1.19968e-07
-7.16398e-09
-1.12752e-07
-7.21631e-09
-1.05511e-07
-7.24129e-09
-9.82722e-08
-7.23847e-09
-9.10647e-08
-7.20752e-09
-8.39165e-08
-7.14823e-09
-7.68558e-08
-7.06062e-09
-6.9911e-08
-6.94483e-09
-6.31099e-08
-6.80115e-09
-5.64799e-08
-6.63007e-09
-5.00476e-08
-6.43228e-09
-4.3839e-08
-6.20855e-09
-3.78793e-08
-5.95979e-09
-3.21921e-08
-5.68708e-09
-2.68004e-08
-5.39169e-09
-2.17254e-08
-5.07501e-09
-1.69868e-08
-4.73854e-09
-1.26028e-08
-4.38397e-09
-8.58968e-09
-4.01315e-09
-4.96164e-09
-3.62805e-09
-1.7308e-09
-3.23086e-09
1.09319e-09
-2.82397e-09
3.50324e-09
-2.41003e-09
5.49514e-09
-1.99191e-09
7.06787e-09
-1.57278e-09
8.224e-09
-1.15615e-09
8.97011e-09
-7.46097e-10
9.31749e-09
-3.47362e-10
9.28307e-09
3.44143e-11
8.89066e-09
3.92406e-10
8.17248e-09
7.18177e-10
7.17147e-09
1.00101e-09
5.94444e-09
1.22701e-09
4.56669e-09
1.37772e-09
3.13801e-09
1.4287e-09
1.78938e-09
1.34866e-09
6.90821e-10
1.09855e-09
5.14795e-11
6.39304e-10
5.14948e-11
8.06995e-10
-1.08064e-09
2.41325e-09
-2.43103e-09
4.21843e-09
-2.827e-09
5.74046e-09
-2.46644e-09
6.62586e-09
-1.58116e-09
6.63273e-09
-3.52236e-10
5.60585e-09
1.08928e-09
3.45498e-09
2.64985e-09
1.36783e-10
4.26332e-09
-4.35798e-09
5.88354e-09
-1.00142e-08
7.47789e-09
-1.67995e-08
9.02365e-09
-2.46694e-08
1.05049e-08
-3.35708e-08
1.19109e-08
-4.34452e-08
1.32347e-08
-5.42309e-08
1.44724e-08
-6.58641e-08
1.5622e-08
-7.82806e-08
1.6683e-08
-9.14165e-08
1.76561e-08
-1.05209e-07
1.85432e-08
-1.19596e-07
1.93464e-08
-1.34519e-07
2.00683e-08
-1.4992e-07
2.07121e-08
-1.65743e-07
2.12808e-08
-1.81935e-07
2.17775e-08
-1.98445e-07
2.22051e-08
-2.15224e-07
2.25667e-08
-2.32225e-07
2.28651e-08
-2.49403e-07
2.3103e-08
-2.66714e-07
2.32825e-08
-2.84117e-07
2.34058e-08
-3.01572e-07
2.34748e-08
-3.19038e-07
2.34913e-08
-3.36478e-07
2.34568e-08
-3.53854e-07
2.33723e-08
-3.71131e-07
2.32389e-08
-3.88271e-07
2.30574e-08
-4.0524e-07
2.28285e-08
-4.22002e-07
2.25525e-08
-4.38523e-07
2.22297e-08
-4.54767e-07
2.18601e-08
-4.707e-07
2.14439e-08
-4.86287e-07
2.09811e-08
-5.01493e-07
2.04716e-08
-5.16283e-07
1.99151e-08
-5.30622e-07
1.93115e-08
-5.44475e-07
1.86607e-08
-5.57808e-07
1.79627e-08
-5.70583e-07
1.72173e-08
-5.82768e-07
1.64246e-08
-5.94327e-07
1.5585e-08
-6.05225e-07
1.46988e-08
-6.15428e-07
1.37665e-08
-6.24904e-07
1.27886e-08
-6.33618e-07
1.17662e-08
-6.41539e-07
1.07002e-08
-6.48635e-07
9.59213e-09
-6.54877e-07
8.44348e-09
-6.60237e-07
7.2561e-09
-6.64687e-07
6.03211e-09
-6.68202e-07
4.77379e-09
-6.7076e-07
3.4837e-09
-6.72338e-07
2.16476e-09
-6.72918e-07
8.20171e-10
-6.72485e-07
-5.4648e-10
-6.71024e-07
-1.93136e-09
-6.68527e-07
-3.33044e-09
-6.64985e-07
-4.73943e-09
-6.60395e-07
-6.15377e-09
-6.54757e-07
-7.56872e-09
-6.48074e-07
-8.97924e-09
-6.40354e-07
-1.03801e-08
-6.31609e-07
-1.17659e-08
-6.21852e-07
-1.31313e-08
-6.11105e-07
-1.44705e-08
-5.9939e-07
-1.5778e-08
-5.86736e-07
-1.70482e-08
-5.73174e-07
-1.82754e-08
-5.58741e-07
-1.94538e-08
-5.43477e-07
-2.05777e-08
-5.27426e-07
-2.16414e-08
-5.10638e-07
-2.26394e-08
-4.93165e-07
-2.35664e-08
-4.75062e-07
-2.44172e-08
-4.56391e-07
-2.5187e-08
-4.37214e-07
-2.58714e-08
-4.17597e-07
-2.64662e-08
-3.97608e-07
-2.69677e-08
-3.77321e-07
-2.73725e-08
-3.56807e-07
-2.76775e-08
-3.36143e-07
-2.78803e-08
-3.15406e-07
-2.79787e-08
-2.94673e-07
-2.79711e-08
-2.74024e-07
-2.78564e-08
-2.53538e-07
-2.7634e-08
-2.33295e-07
-2.7304e-08
-2.13373e-07
-2.68669e-08
-1.9385e-07
-2.63241e-08
-1.74803e-07
-2.56774e-08
-1.56306e-07
-2.49293e-08
-1.38431e-07
-2.40827e-08
-1.2125e-07
-2.31413e-08
-1.04828e-07
-2.21093e-08
-8.92279e-08
-2.09915e-08
-7.45098e-08
-1.97931e-08
-6.07281e-08
-1.85202e-08
-4.79328e-08
-1.71794e-08
-3.61681e-08
-1.57778e-08
-2.54729e-08
-1.43232e-08
-1.58794e-08
-1.28244e-08
-7.4128e-09
-1.12906e-08
-9.08035e-11
-9.73205e-09
6.0774e-09
-8.16013e-09
1.1092e-08
-6.58733e-09
1.49635e-08
-5.02767e-09
1.77144e-08
-3.49703e-09
1.93808e-08
-2.01375e-09
2.00145e-08
-5.9927e-10
1.9686e-08
7.20875e-10
1.84882e-08
1.91598e-09
1.65407e-08
2.9485e-09
1.39957e-08
3.77196e-09
1.10447e-08
4.32871e-09
7.92518e-09
4.54827e-09
4.92482e-09
4.34898e-09
2.37807e-09
3.64526e-09
6.38176e-10
2.37924e-09
6.89656e-10
1.00512e-09
-2.08578e-09
2.79438e-09
-4.22028e-09
4.59501e-09
-4.62769e-09
5.82281e-09
-3.69422e-09
6.03338e-09
-1.79172e-09
4.90517e-09
7.75928e-10
2.21952e-09
3.77492e-09
-2.16034e-09
7.02968e-09
-8.30762e-09
1.04106e-08
-1.62466e-08
1.38226e-08
-2.59654e-08
1.71966e-08
-3.74237e-08
2.0482e-08
-5.05623e-08
2.36434e-08
-6.53068e-08
2.66555e-08
-8.15733e-08
2.95013e-08
-9.92709e-08
3.21701e-08
-1.18305e-07
3.46559e-08
-1.38578e-07
3.69563e-08
-1.59994e-07
3.90716e-08
-1.82455e-07
4.1004e-08
-2.05866e-07
4.27574e-08
-2.30134e-07
4.43365e-08
-2.55168e-07
4.57469e-08
-2.80882e-07
4.69946e-08
-3.0719e-07
4.80855e-08
-3.34011e-07
4.90257e-08
-3.61265e-07
4.98213e-08
-3.88878e-07
5.04779e-08
-4.16776e-07
5.10008e-08
-4.44888e-07
5.13948e-08
-4.73147e-07
5.16645e-08
-5.01486e-07
5.1814e-08
-5.29841e-07
5.18467e-08
-5.5815e-07
5.17656e-08
-5.86351e-07
5.15734e-08
-6.14385e-07
5.12724e-08
-6.42191e-07
5.08642e-08
-6.69713e-07
5.03501e-08
-6.96892e-07
4.97312e-08
-7.2367e-07
4.90081e-08
-7.49991e-07
4.81812e-08
-7.75798e-07
4.72507e-08
-8.01033e-07
4.62166e-08
-8.25641e-07
4.5079e-08
-8.49563e-07
4.38376e-08
-8.72744e-07
4.24923e-08
-8.95126e-07
4.10429e-08
-9.16653e-07
3.94894e-08
-9.37268e-07
3.78321e-08
-9.56915e-07
3.60712e-08
-9.75537e-07
3.42075e-08
-9.9308e-07
3.2242e-08
-1.00949e-06
3.01757e-08
-1.02471e-06
2.80105e-08
-1.03869e-06
2.57484e-08
-1.05139e-06
2.3392e-08
-1.06274e-06
2.09443e-08
-1.0727e-06
1.84091e-08
-1.08124e-06
1.57903e-08
-1.0883e-06
1.30928e-08
-1.09385e-06
1.03216e-08
-1.09785e-06
7.48275e-09
-1.10026e-06
4.58258e-09
-1.10107e-06
1.62822e-09
-1.10025e-06
-1.37261e-09
-1.09776e-06
-4.41157e-09
-1.09362e-06
-7.47977e-09
-1.08779e-06
-1.05679e-08
-1.08027e-06
-1.36659e-08
-1.07108e-06
-1.67636e-08
-1.06021e-06
-1.985e-08
-1.04768e-06
-2.29138e-08
-1.0335e-06
-2.59435e-08
-1.0177e-06
-2.89271e-08
-1.00032e-06
-3.18527e-08
-9.8139e-07
-3.47079e-08
-9.60958e-07
-3.74805e-08
-9.39075e-07
-4.01583e-08
-9.158e-07
-4.27287e-08
-8.91198e-07
-4.51795e-08
-8.65341e-07
-4.74988e-08
-8.38306e-07
-4.96745e-08
-8.10177e-07
-5.16954e-08
-7.81044e-07
-5.35504e-08
-7.51001e-07
-5.52294e-08
-7.2015e-07
-5.67226e-08
-6.88595e-07
-5.80212e-08
-6.56446e-07
-5.91169e-08
-6.23816e-07
-6.00025e-08
-5.90822e-07
-6.06715e-08
-5.57583e-07
-6.11186e-08
-5.24223e-07
-6.13392e-08
-4.90864e-07
-6.133e-08
-4.57632e-07
-6.10888e-08
-4.24651e-07
-6.06144e-08
-3.92048e-07
-5.99072e-08
-3.59947e-07
-5.89684e-08
-3.2847e-07
-5.7801e-08
-2.97738e-07
-5.64089e-08
-2.6787e-07
-5.47974e-08
-2.3898e-07
-5.29733e-08
-2.11177e-07
-5.09444e-08
-1.84566e-07
-4.87198e-08
-1.59247e-07
-4.63101e-08
-1.35314e-07
-4.3727e-08
-1.1285e-07
-4.09836e-08
-9.19352e-08
-3.80943e-08
-7.26378e-08
-3.50751e-08
-5.50177e-08
-3.19433e-08
-3.91243e-08
-2.87178e-08
-2.49957e-08
-2.54191e-08
-1.26576e-08
-2.20701e-08
-2.12224e-09
-1.86956e-08
6.61341e-09
-1.5323e-08
1.3569e-08
-1.19832e-08
1.87828e-08
-8.71082e-09
2.23145e-08
-5.54539e-09
2.42478e-08
-2.53258e-09
2.46943e-08
2.74311e-10
2.37979e-08
2.8124e-09
2.17397e-08
5.00676e-09
1.87438e-08
6.76789e-09
1.50831e-08
7.98939e-09
1.10839e-08
8.54749e-09
7.12709e-09
8.30576e-09
3.64292e-09
7.12948e-09
1.09575e-09
4.92641e-09
1.7854e-09
9.34255e-10
-3.02009e-09
2.44383e-09
-5.7298e-09
3.66603e-09
-5.8499e-09
3.96291e-09
-3.9911e-09
2.84752e-09
-6.76302e-10
-4.03574e-11
3.6638e-09
-4.95371e-09
8.68821e-09
-1.20573e-08
1.41333e-08
-2.14445e-08
1.97977e-08
-3.3151e-08
2.55291e-08
-4.71679e-08
3.12135e-08
-6.3452e-08
3.67661e-08
-8.19334e-08
4.21249e-08
-1.02523e-07
4.7245e-08
-1.25117e-07
5.20955e-08
-1.49603e-07
5.66558e-08
-1.75861e-07
6.09134e-08
-2.03766e-07
6.48618e-08
-2.33194e-07
6.84998e-08
-2.6402e-07
7.18296e-08
-2.96118e-07
7.48559e-08
-3.29368e-07
7.75856e-08
-3.63648e-07
8.00271e-08
-3.98842e-07
8.21892e-08
-4.34838e-07
8.40814e-08
-4.71526e-07
8.57133e-08
-5.08799e-07
8.70946e-08
-5.46555e-07
8.82343e-08
-5.84696e-07
8.9141e-08
-6.23124e-07
8.9823e-08
-6.61747e-07
9.02874e-08
-7.00474e-07
9.05411e-08
-7.39217e-07
9.05899e-08
-7.7789e-07
9.0439e-08
-8.1641e-07
9.00927e-08
-8.54692e-07
8.95548e-08
-8.92656e-07
8.88283e-08
-9.30222e-07
8.79156e-08
-9.67309e-07
8.68184e-08
-1.00384e-06
8.5538e-08
-1.03973e-06
8.40752e-08
-1.07491e-06
8.24306e-08
-1.1093e-06
8.06045e-08
-1.14282e-06
7.85968e-08
-1.17539e-06
7.64076e-08
-1.20693e-06
7.40368e-08
-1.23737e-06
7.14846e-08
-1.26664e-06
6.87513e-08
-1.29464e-06
6.58373e-08
-1.32131e-06
6.27436e-08
-1.34658e-06
5.94717e-08
-1.37036e-06
5.60233e-08
-1.39259e-06
5.24011e-08
-1.41318e-06
4.86081e-08
-1.43208e-06
4.46483e-08
-1.44922e-06
4.05263e-08
-1.46452e-06
3.62477e-08
-1.47793e-06
3.18189e-08
-1.48939e-06
2.72474e-08
-1.49884e-06
2.25414e-08
-1.50622e-06
1.77103e-08
-1.51151e-06
1.27643e-08
-1.51464e-06
7.71472e-09
-1.51558e-06
2.574e-09
-1.51431e-06
-2.64448e-09
-1.5108e-06
-7.92633e-09
-1.50502e-06
-1.32562e-08
-1.49697e-06
-1.86177e-08
-1.48664e-06
-2.3994e-08
-1.47404e-06
-2.9367e-08
-1.45917e-06
-3.4718e-08
-1.44206e-06
-4.00278e-08
-1.42273e-06
-4.52764e-08
-1.40121e-06
-5.04434e-08
-1.37755e-06
-5.55082e-08
-1.35181e-06
-6.04497e-08
-1.32405e-06
-6.52468e-08
-1.29433e-06
-6.98784e-08
-1.26273e-06
-7.43234e-08
-1.22935e-06
-7.85609e-08
-1.19428e-06
-8.25703e-08
-1.15762e-06
-8.63316e-08
-1.11949e-06
-8.98253e-08
-1.08001e-06
-9.3033e-08
-1.0393e-06
-9.5937e-08
-9.97502e-07
-9.85209e-08
-9.54754e-07
-1.00769e-07
-9.11202e-07
-1.02669e-07
-8.66999e-07
-1.04206e-07
-8.22299e-07
-1.05371e-07
-7.77264e-07
-1.06154e-07
-7.32055e-07
-1.06548e-07
-6.86839e-07
-1.06547e-07
-6.41781e-07
-1.06147e-07
-5.97049e-07
-1.05347e-07
-5.52809e-07
-1.04147e-07
-5.09228e-07
-1.0255e-07
-4.66469e-07
-1.0056e-07
-4.24692e-07
-9.81853e-08
-3.84055e-07
-9.54344e-08
-3.4471e-07
-9.23188e-08
-3.06802e-07
-8.88522e-08
-2.70471e-07
-8.50505e-08
-2.3585e-07
-8.09319e-08
-2.0306e-07
-7.65169e-08
-1.72215e-07
-7.18281e-08
-1.43419e-07
-6.68908e-08
-1.16761e-07
-6.17325e-08
-9.23214e-08
-5.63832e-08
-7.01631e-08
-5.0876e-08
-5.03354e-08
-4.52468e-08
-3.28707e-08
-3.95349e-08
-1.77829e-08
-3.37834e-08
-5.06612e-09
-2.80398e-08
5.30779e-09
-2.23571e-08
1.33915e-08
-1.67945e-08
1.92649e-08
-1.14189e-08
2.30388e-08
-6.30647e-09
2.48582e-08
-1.54507e-09
2.4907e-08
2.76362e-09
2.34125e-08
6.50123e-09
2.06505e-08
9.52991e-09
1.69495e-08
1.16904e-08
1.26945e-08
1.28025e-08
8.32913e-09
1.26711e-08
4.35659e-09
1.1102e-08
1.3466e-09
7.9364e-09
3.13202e-09
6.96689e-10
-3.7168e-09
1.57568e-09
-6.60887e-09
1.77396e-09
-6.04814e-09
6.44489e-10
-2.86163e-09
-2.30911e-09
2.2773e-09
-7.45819e-09
8.81298e-09
-1.50684e-08
1.62984e-08
-2.53162e-08
2.43811e-08
-3.83039e-08
3.27854e-08
-5.40732e-08
4.12984e-08
-7.26161e-08
4.97564e-08
-9.38856e-08
5.80357e-08
-1.17804e-07
6.60434e-08
-1.44271e-07
7.37117e-08
-1.73167e-07
8.09916e-08
-2.04361e-07
8.78499e-08
-2.37713e-07
9.42653e-08
-2.73077e-07
1.00226e-07
-3.10304e-07
1.05727e-07
-3.49245e-07
1.1077e-07
-3.89749e-07
1.1536e-07
-4.31669e-07
1.19506e-07
-4.7486e-07
1.23218e-07
-5.19178e-07
1.26508e-07
-5.64486e-07
1.29389e-07
-6.10648e-07
1.31875e-07
-6.57533e-07
1.3398e-07
-7.05015e-07
1.35715e-07
-7.52968e-07
1.37094e-07
-8.01273e-07
1.38129e-07
-8.49815e-07
1.38829e-07
-8.98478e-07
1.39204e-07
-9.47152e-07
1.39264e-07
-9.9573e-07
1.39016e-07
-1.0441e-06
1.38466e-07
-1.09217e-06
1.37621e-07
-1.13982e-06
1.36483e-07
-1.18697e-06
1.35058e-07
-1.2335e-06
1.33348e-07
-1.27931e-06
1.31355e-07
-1.32432e-06
1.2908e-07
-1.36841e-06
1.26525e-07
-1.4115e-06
1.2369e-07
-1.45348e-06
1.20575e-07
-1.49425e-06
1.17182e-07
-1.53372e-06
1.13509e-07
-1.5718e-06
1.09559e-07
-1.60838e-06
1.05331e-07
-1.64336e-06
1.00826e-07
-1.67667e-06
9.60474e-08
-1.70819e-06
9.09966e-08
-1.73785e-06
8.56771e-08
-1.76554e-06
8.00931e-08
-1.79118e-06
7.42499e-08
-1.81469e-06
6.81537e-08
-1.83597e-06
6.1812e-08
-1.85496e-06
5.52336e-08
-1.87157e-06
4.84286e-08
-1.88573e-06
4.14086e-08
-1.89737e-06
3.41866e-08
-1.90644e-06
2.67768e-08
-1.91287e-06
1.91954e-08
-1.91662e-06
1.14597e-08
-1.91763e-06
3.58863e-09
-1.91588e-06
-4.39718e-09
-1.91133e-06
-1.24758e-08
-1.90396e-06
-2.06239e-08
-1.89376e-06
-2.88167e-08
-1.88073e-06
-3.70282e-08
-1.86486e-06
-4.52313e-08
-1.84618e-06
-5.33977e-08
-1.82471e-06
-6.1498e-08
-1.80049e-06
-6.95023e-08
-1.77355e-06
-7.73797e-08
-1.74396e-06
-8.5099e-08
-1.71178e-06
-9.26284e-08
-1.67709e-06
-9.99361e-08
-1.63998e-06
-1.0699e-07
-1.60055e-06
-1.13759e-07
-1.5589e-06
-1.20211e-07
-1.51515e-06
-1.26316e-07
-1.46944e-06
-1.32042e-07
-1.4219e-06
-1.37362e-07
-1.37269e-06
-1.42248e-07
-1.32195e-06
-1.46673e-07
-1.26986e-06
-1.50611e-07
-1.21659e-06
-1.54042e-07
-1.16231e-06
-1.56943e-07
-1.10722e-06
-1.59296e-07
-1.05151e-06
-1.61084e-07
-9.95371e-07
-1.62295e-07
-9.39003e-07
-1.62916e-07
-8.82611e-07
-1.62939e-07
-8.26398e-07
-1.6236e-07
-7.70569e-07
-1.61175e-07
-7.1533e-07
-1.59386e-07
-6.60884e-07
-1.56996e-07
-6.0743e-07
-1.54014e-07
-5.55166e-07
-1.50449e-07
-5.04284e-07
-1.46317e-07
-4.54969e-07
-1.41633e-07
-4.07402e-07
-1.3642e-07
-3.61752e-07
-1.30701e-07
-3.1818e-07
-1.24504e-07
-2.76837e-07
-1.1786e-07
-2.3786e-07
-1.10804e-07
-2.01376e-07
-1.03375e-07
-1.67495e-07
-9.56139e-08
-1.36311e-07
-8.75673e-08
-1.07902e-07
-7.92852e-08
-8.23261e-08
-7.08224e-08
-5.96223e-08
-6.22387e-08
-3.98061e-08
-5.35995e-08
-2.2869e-08
-4.49769e-08
-8.77585e-09
-3.64502e-08
2.53767e-09
-2.8108e-08
1.11681e-08
-2.00493e-08
1.72473e-08
-1.23857e-08
2.09463e-08
-5.24401e-09
2.24788e-08
1.23109e-09
2.21058e-08
6.87425e-09
2.01391e-08
1.14966e-08
1.69458e-08
1.48837e-08
1.29515e-08
1.67968e-08
8.64547e-09
1.69772e-08
4.5885e-09
1.5159e-08
1.43349e-09
1.10914e-08
4.56551e-09
3.54126e-10
-4.07086e-09
3.52693e-10
-6.60743e-09
-8.08121e-10
-4.88735e-09
-3.74644e-09
7.67011e-11
-8.94113e-09
7.47204e-09
-1.67538e-08
1.66255e-08
-2.7445e-08
2.69897e-08
-4.11897e-08
3.81258e-08
-5.80895e-08
4.96851e-08
-7.81844e-08
6.13933e-08
-1.01464e-07
7.30357e-08
-1.27875e-07
8.44472e-08
-1.57334e-07
9.55017e-08
-1.89727e-07
1.06105e-07
-2.24924e-07
1.16189e-07
-2.62778e-07
1.25704e-07
-3.03132e-07
1.34619e-07
-3.45822e-07
1.42915e-07
-3.90677e-07
1.50583e-07
-4.37528e-07
1.57621e-07
-4.86202e-07
1.64035e-07
-5.3653e-07
1.69833e-07
-5.88343e-07
1.7503e-07
-6.41475e-07
1.7964e-07
-6.95765e-07
1.83679e-07
-7.51055e-07
1.87165e-07
-8.07191e-07
1.90115e-07
-8.64022e-07
1.92546e-07
-9.21402e-07
1.94475e-07
-9.7919e-07
1.95916e-07
-1.03725e-06
1.96885e-07
-1.09543e-06
1.97393e-07
-1.15362e-06
1.97454e-07
-1.21169e-06
1.97077e-07
-1.26949e-06
1.96271e-07
-1.32691e-06
1.95044e-07
-1.38383e-06
1.93402e-07
-1.44012e-06
1.9135e-07
-1.49567e-06
1.88893e-07
-1.55035e-06
1.86033e-07
-1.60404e-06
1.82772e-07
-1.65663e-06
1.79114e-07
-1.708e-06
1.75057e-07
-1.75803e-06
1.70605e-07
-1.8066e-06
1.65757e-07
-1.85361e-06
1.60514e-07
-1.89892e-06
1.54877e-07
-1.94244e-06
1.48849e-07
-1.98405e-06
1.42432e-07
-2.02363e-06
1.35627e-07
-2.06107e-06
1.2844e-07
-2.09627e-06
1.20876e-07
-2.12912e-06
1.12941e-07
-2.15951e-06
1.04642e-07
-2.18735e-06
9.59893e-08
-2.21253e-06
8.69937e-08
-2.23496e-06
7.7668e-08
-2.25456e-06
6.80268e-08
-2.27124e-06
5.80867e-08
-2.28492e-06
4.78662e-08
-2.29553e-06
3.73859e-08
-2.303e-06
2.66685e-08
-2.30728e-06
1.57388e-08
-2.30831e-06
4.62349e-09
-2.30606e-06
-6.64839e-09
-2.30049e-06
-1.80459e-08
-2.29158e-06
-2.95363e-08
-2.27931e-06
-4.10849e-08
-2.26369e-06
-5.26551e-08
-2.24471e-06
-6.4209e-08
-2.2224e-06
-7.57071e-08
-2.19679e-06
-8.71085e-08
-2.16792e-06
-9.83712e-08
-2.13585e-06
-1.09452e-07
-2.10064e-06
-1.20308e-07
-2.06237e-06
-1.30895e-07
-2.02114e-06
-1.41168e-07
-1.97705e-06
-1.51083e-07
-1.93021e-06
-1.60596e-07
-1.88076e-06
-1.69663e-07
-1.82883e-06
-1.78242e-07
-1.77458e-06
-1.8629e-07
-1.71818e-06
-1.93769e-07
-1.65979e-06
-2.00638e-07
-1.5996e-06
-2.06862e-07
-1.5378e-06
-2.12406e-07
-1.47461e-06
-2.17239e-07
-1.41022e-06
-2.21332e-07
-1.34485e-06
-2.24658e-07
-1.27874e-06
-2.27196e-07
-1.21211e-06
-2.28926e-07
-1.14519e-06
-2.29833e-07
-1.07823e-06
-2.29906e-07
-1.01145e-06
-2.29137e-07
-9.45099e-07
-2.27524e-07
-8.79418e-07
-2.25067e-07
-8.14642e-07
-2.21773e-07
-7.51004e-07
-2.17651e-07
-6.88735e-07
-2.12718e-07
-6.2806e-07
-2.06992e-07
-5.69194e-07
-2.00499e-07
-5.12346e-07
-1.93267e-07
-4.57716e-07
-1.85331e-07
-4.05491e-07
-1.76729e-07
-3.55846e-07
-1.67505e-07
-3.08941e-07
-1.57709e-07
-2.64924e-07
-1.47393e-07
-2.23921e-07
-1.36617e-07
-1.86043e-07
-1.25445e-07
-1.5138e-07
-1.13949e-07
-1.19999e-07
-1.02203e-07
-9.19439e-08
-9.02936e-08
-6.72333e-08
-7.83102e-08
-4.5857e-08
-6.63531e-08
-2.77751e-08
-5.45322e-08
-1.29143e-08
-4.29688e-08
-1.16579e-09
-3.17977e-08
7.61803e-09
-2.11695e-08
1.3627e-08
-1.1253e-08
1.70964e-08
-2.23832e-09
1.83106e-08
5.66006e-09
1.76066e-08
1.22006e-08
1.53776e-08
1.71127e-08
1.20777e-08
2.00966e-08
8.22913e-09
2.08258e-08
4.43376e-09
1.89544e-08
1.39841e-09
1.41268e-08
5.9639e-09
-5.3065e-11
-4.01781e-09
-1.10673e-09
-5.55376e-09
-3.87129e-09
-2.12281e-09
-8.90802e-09
5.1134e-09
-1.66567e-08
1.52208e-08
-2.74519e-08
2.74207e-08
-4.15355e-08
4.10734e-08
-5.90692e-08
5.56594e-08
-8.01446e-08
7.07606e-08
-1.04794e-07
8.60425e-08
-1.32999e-07
1.0124e-07
-1.64698e-07
1.16147e-07
-1.99799e-07
1.30602e-07
-2.38178e-07
1.44484e-07
-2.79692e-07
1.57702e-07
-3.2418e-07
1.70193e-07
-3.71471e-07
1.8191e-07
-4.21383e-07
1.92827e-07
-4.7373e-07
2.0293e-07
-5.28322e-07
2.12213e-07
-5.84969e-07
2.20681e-07
-6.4348e-07
2.28344e-07
-7.03667e-07
2.35217e-07
-7.65343e-07
2.41317e-07
-8.28327e-07
2.46663e-07
-8.92438e-07
2.51277e-07
-9.57503e-07
2.5518e-07
-1.02335e-06
2.58393e-07
-1.08981e-06
2.60937e-07
-1.15672e-06
2.6283e-07
-1.22393e-06
2.64091e-07
-1.29127e-06
2.64737e-07
-1.3586e-06
2.64782e-07
-1.42576e-06
2.64239e-07
-1.49261e-06
2.63121e-07
-1.55901e-06
2.61437e-07
-1.6248e-06
2.59195e-07
-1.68985e-06
2.56402e-07
-1.75402e-06
2.53064e-07
-1.81718e-06
2.49185e-07
-1.87917e-06
2.44767e-07
-1.93987e-06
2.39815e-07
-1.99915e-06
2.3433e-07
-2.05685e-06
2.28313e-07
-2.11286e-06
2.21767e-07
-2.16704e-06
2.14692e-07
-2.21926e-06
2.07091e-07
-2.26937e-06
1.98968e-07
-2.31727e-06
1.90324e-07
-2.3628e-06
1.81166e-07
-2.40586e-06
1.71499e-07
-2.44632e-06
1.6133e-07
-2.48404e-06
1.50668e-07
-2.51893e-06
1.39526e-07
-2.55085e-06
1.27914e-07
-2.57971e-06
1.1585e-07
-2.60539e-06
1.0335e-07
-2.6278e-06
9.04335e-08
-2.64684e-06
7.71241e-08
-2.66242e-06
6.34465e-08
-2.67446e-06
4.94284e-08
-2.68289e-06
3.51003e-08
-2.68765e-06
2.04953e-08
-2.68867e-06
5.64942e-09
-2.68592e-06
-9.39892e-09
-2.67936e-06
-2.46085e-08
-2.66896e-06
-3.99358e-08
-2.65471e-06
-5.53346e-08
-2.63661e-06
-7.07567e-08
-2.61467e-06
-8.61518e-08
-2.58891e-06
-1.01467e-07
-2.55936e-06
-1.1665e-07
-2.52609e-06
-1.31644e-07
-2.48915e-06
-1.46392e-07
-2.44862e-06
-1.60838e-07
-2.40459e-06
-1.74923e-07
-2.35717e-06
-1.88588e-07
-2.30648e-06
-2.01776e-07
-2.25265e-06
-2.14429e-07
-2.19582e-06
-2.26488e-07
-2.13616e-06
-2.37899e-07
-2.07385e-06
-2.48606e-07
-2.00906e-06
-2.58557e-07
-1.942e-06
-2.677e-07
-1.87287e-06
-2.75989e-07
-1.8019e-06
-2.83378e-07
-1.72931e-06
-2.89826e-07
-1.65535e-06
-2.95294e-07
-1.58026e-06
-2.99749e-07
-1.50429e-06
-3.03162e-07
-1.42771e-06
-3.05507e-07
-1.35078e-06
-3.06765e-07
-1.27377e-06
-3.0692e-07
-1.19694e-06
-3.05964e-07
-1.12057e-06
-3.03892e-07
-1.04493e-06
-3.00706e-07
-9.70292e-07
-2.96415e-07
-8.96911e-07
-2.91032e-07
-8.25052e-07
-2.84577e-07
-7.54968e-07
-2.77077e-07
-6.86904e-07
-2.68563e-07
-6.21097e-07
-2.59075e-07
-5.57771e-07
-2.48657e-07
-4.97137e-07
-2.37362e-07
-4.39395e-07
-2.25247e-07
-3.84726e-07
-2.12378e-07
-3.33293e-07
-1.98825e-07
-2.85243e-07
-1.84667e-07
-2.407e-07
-1.69989e-07
-1.99764e-07
-1.54884e-07
-1.62513e-07
-1.39455e-07
-1.28996e-07
-1.23811e-07
-9.92341e-08
-1.08072e-07
-7.32187e-08
-9.23685e-08
-5.09064e-08
-7.68445e-08
-3.22184e-08
-6.16567e-08
-1.70377e-08
-4.69785e-08
-5.20571e-09
-3.30015e-08
3.48011e-09
-1.99388e-08
9.26956e-09
-8.02773e-09
1.24626e-08
2.4671e-09
1.34125e-08
1.12507e-08
1.253e-08
1.79952e-08
1.0288e-08
2.23387e-08
7.22942e-09
2.38844e-08
3.98081e-09
2.2203e-08
1.27474e-09
1.68329e-08
7.23864e-09
-4.98552e-10
-3.51925e-09
-2.71916e-09
-3.33312e-09
-7.26125e-09
2.41925e-09
-1.46104e-08
1.24625e-08
-2.51514e-08
2.57618e-08
-3.91784e-08
4.14477e-08
-5.6903e-08
5.87979e-08
-7.84635e-08
7.722e-08
-1.03934e-07
9.62311e-08
-1.33332e-07
1.15441e-07
-1.66627e-07
1.34535e-07
-2.03746e-07
1.53267e-07
-2.44585e-07
1.71441e-07
-2.8901e-07
1.88909e-07
-3.36864e-07
2.05557e-07
-3.87975e-07
2.21303e-07
-4.42156e-07
2.36091e-07
-4.99212e-07
2.49883e-07
-5.5894e-07
2.62658e-07
-6.21134e-07
2.74407e-07
-6.85587e-07
2.85134e-07
-7.5209e-07
2.94848e-07
-8.20437e-07
3.03564e-07
-8.90423e-07
3.11303e-07
-9.61846e-07
3.18087e-07
-1.03451e-06
3.2394e-07
-1.10822e-06
3.28889e-07
-1.18278e-06
3.32957e-07
-1.25801e-06
3.36169e-07
-1.33373e-06
3.38549e-07
-1.40976e-06
3.40119e-07
-1.48592e-06
3.40898e-07
-1.56205e-06
3.40906e-07
-1.63796e-06
3.40157e-07
-1.71351e-06
3.38666e-07
-1.78852e-06
3.36447e-07
-1.86283e-06
3.33508e-07
-1.93629e-06
3.29859e-07
-2.00873e-06
3.25507e-07
-2.08001e-06
3.20458e-07
-2.14995e-06
3.14715e-07
-2.21842e-06
3.08284e-07
-2.28526e-06
3.01166e-07
-2.35031e-06
2.93364e-07
-2.41343e-06
2.84882e-07
-2.47446e-06
2.75721e-07
-2.53325e-06
2.65886e-07
-2.58966e-06
2.55381e-07
-2.64355e-06
2.4421e-07
-2.69477e-06
2.32381e-07
-2.74317e-06
2.19902e-07
-2.78862e-06
2.06783e-07
-2.83099e-06
1.93036e-07
-2.87014e-06
1.78677e-07
-2.90595e-06
1.63722e-07
-2.93829e-06
1.48191e-07
-2.96705e-06
1.32108e-07
-2.99211e-06
1.15499e-07
-3.01338e-06
9.8392e-08
-3.03076e-06
8.08207e-08
-3.04415e-06
6.28205e-08
-3.05348e-06
4.44307e-08
-3.05868e-06
2.56939e-08
-3.05968e-06
6.65613e-09
-3.05645e-06
-1.26333e-08
-3.04894e-06
-3.21218e-08
-3.03712e-06
-5.17537e-08
-3.02098e-06
-7.14703e-08
-3.00053e-06
-9.12103e-08
-2.97577e-06
-1.1091e-07
-2.94674e-06
-1.30502e-07
-2.91347e-06
-1.49919e-07
-2.87602e-06
-1.6909e-07
-2.83447e-06
-1.87943e-07
-2.7889e-06
-2.06406e-07
-2.73942e-06
-2.24406e-07
-2.68614e-06
-2.41868e-07
-2.6292e-06
-2.58719e-07
-2.56874e-06
-2.74886e-07
-2.50493e-06
-2.90296e-07
-2.43795e-06
-3.04878e-07
-2.36799e-06
-3.18564e-07
-2.29527e-06
-3.31286e-07
-2.21998e-06
-3.42982e-07
-2.14238e-06
-3.53591e-07
-2.06271e-06
-3.63055e-07
-1.98121e-06
-3.71324e-07
-1.89815e-06
-3.78348e-07
-1.81382e-06
-3.84086e-07
-1.72848e-06
-3.88501e-07
-1.64242e-06
-3.9156e-07
-1.55595e-06
-3.93239e-07
-1.46935e-06
-3.93519e-07
-1.38292e-06
-3.92389e-07
-1.29697e-06
-3.89844e-07
-1.21179e-06
-3.85886e-07
-1.12768e-06
-3.80525e-07
-1.04494e-06
-3.7378e-07
-9.63838e-07
-3.65675e-07
-8.84671e-07
-3.56243e-07
-8.07707e-07
-3.45528e-07
-7.33205e-07
-3.33576e-07
-6.61416e-07
-3.20447e-07
-5.92573e-07
-3.06205e-07
-5.26896e-07
-2.90924e-07
-4.64587e-07
-2.74687e-07
-4.05828e-07
-2.57584e-07
-3.50779e-07
-2.39716e-07
-2.99578e-07
-2.21189e-07
-2.52338e-07
-2.02124e-07
-2.09145e-07
-1.82648e-07
-1.70056e-07
-1.629e-07
-1.35097e-07
-1.43031e-07
-1.04259e-07
-1.23206e-07
-7.74993e-08
-1.03604e-07
-5.47368e-08
-8.44192e-08
-3.58496e-08
-6.58657e-08
-2.06728e-08
-4.81782e-08
-8.99633e-09
-3.16153e-08
-5.61661e-10
-1.64624e-08
4.94038e-09
-3.03493e-09
7.87281e-09
8.31821e-09
8.65615e-09
1.72119e-08
7.77333e-09
2.32216e-08
5.77759e-09
2.58801e-08
3.30409e-09
2.46765e-08
1.0882e-09
1.90488e-08
8.32684e-09
-9.65907e-10
-2.55333e-09
-4.42697e-09
1.27968e-10
-1.08656e-08
8.85792e-09
-2.06809e-08
2.22777e-08
-3.41918e-08
3.92727e-08
-5.1641e-08
5.88969e-08
-7.32006e-08
8.03575e-08
-9.89779e-08
1.02997e-07
-1.29022e-07
1.26275e-07
-1.6333e-07
1.49748e-07
-2.01854e-07
1.73059e-07
-2.44507e-07
1.9592e-07
-2.91171e-07
2.18105e-07
-3.41697e-07
2.39435e-07
-3.95919e-07
2.59778e-07
-4.53648e-07
2.79033e-07
-5.14686e-07
2.97129e-07
-5.78823e-07
3.1402e-07
-6.45842e-07
3.29676e-07
-7.15522e-07
3.44087e-07
-7.87639e-07
3.57251e-07
-8.6197e-07
3.69178e-07
-9.38291e-07
3.79885e-07
-1.01638e-06
3.89393e-07
-1.09602e-06
3.97727e-07
-1.177e-06
4.04916e-07
-1.2591e-06
4.10988e-07
-1.34211e-06
4.15971e-07
-1.42584e-06
4.19896e-07
-1.51008e-06
4.22788e-07
-1.59463e-06
4.24673e-07
-1.67931e-06
4.25575e-07
-1.76392e-06
4.25516e-07
-1.84828e-06
4.24515e-07
-1.9322e-06
4.2259e-07
-2.01551e-06
4.19754e-07
-2.09802e-06
4.16021e-07
-2.17956e-06
4.11401e-07
-2.25995e-06
4.05902e-07
-2.33903e-06
3.99534e-07
-2.41661e-06
3.923e-07
-2.49254e-06
3.84206e-07
-2.56663e-06
3.75257e-07
-2.63872e-06
3.65456e-07
-2.70864e-06
3.54807e-07
-2.77624e-06
3.43314e-07
-2.84133e-06
3.30983e-07
-2.90377e-06
3.1782e-07
-2.96339e-06
3.03831e-07
-3.02004e-06
2.89025e-07
-3.07355e-06
2.73415e-07
-3.12378e-06
2.57013e-07
-3.17058e-06
2.39836e-07
-3.21381e-06
2.21903e-07
-3.25332e-06
2.03235e-07
-3.28899e-06
1.83859e-07
-3.32068e-06
1.63803e-07
-3.34828e-06
1.43101e-07
-3.37168e-06
1.21789e-07
-3.39077e-06
9.99075e-08
-3.40545e-06
7.75023e-08
-3.41564e-06
5.46218e-08
-3.42127e-06
3.13192e-08
-3.42226e-06
7.6515e-09
-3.41857e-06
-1.63201e-08
-3.41017e-06
-4.05304e-08
-3.39701e-06
-6.49107e-08
-3.37909e-06
-8.93885e-08
-3.35641e-06
-1.13888e-07
-3.32899e-06
-1.38331e-07
-3.29686e-06
-1.62634e-07
-3.26006e-06
-1.86715e-07
-3.21867e-06
-2.10486e-07
-3.17275e-06
-2.3386e-07
-3.12241e-06
-2.56747e-07
-3.06776e-06
-2.79057e-07
-3.00892e-06
-3.007e-07
-2.94606e-06
-3.21585e-07
-2.87932e-06
-3.41623e-07
-2.80889e-06
-3.60725e-07
-2.73497e-06
-3.78803e-07
-2.65776e-06
-3.95775e-07
-2.57748e-06
-4.11558e-07
-2.49439e-06
-4.26074e-07
-2.40873e-06
-4.3925e-07
-2.32077e-06
-4.51016e-07
-2.23079e-06
-4.61308e-07
-2.13907e-06
-4.70068e-07
-2.04591e-06
-4.77244e-07
-1.95162e-06
-4.8279e-07
-1.85651e-06
-4.86668e-07
-1.7609e-06
-4.88847e-07
-1.66512e-06
-4.89304e-07
-1.56948e-06
-4.88026e-07
-1.47432e-06
-4.85006e-07
-1.37996e-06
-4.80248e-07
-1.28672e-06
-4.73764e-07
-1.19492e-06
-4.65576e-07
-1.10488e-06
-4.55715e-07
-1.0169e-06
-4.44222e-07
-9.31281e-07
-4.31149e-07
-8.48302e-07
-4.16555e-07
-7.68237e-07
-4.00512e-07
-6.91342e-07
-3.831e-07
-6.17855e-07
-3.6441e-07
-5.47999e-07
-3.44544e-07
-4.8197e-07
-3.23613e-07
-4.19947e-07
-3.01739e-07
-3.62079e-07
-2.79057e-07
-3.08493e-07
-2.55711e-07
-2.59282e-07
-2.31858e-07
-2.14513e-07
-2.07669e-07
-1.74215e-07
-1.83329e-07
-1.38386e-07
-1.59036e-07
-1.06983e-07
-1.35007e-07
-7.99265e-08
-1.11476e-07
-5.70925e-08
-8.86997e-08
-3.83141e-08
-6.69566e-08
-2.33778e-08
-4.65517e-08
-1.20213e-08
-2.78188e-08
-3.93154e-09
-1.11247e-08
1.25841e-09
3.12825e-09
3.97243e-09
1.44979e-08
4.6959e-09
2.24981e-08
3.9824e-09
2.65937e-08
2.46269e-09
2.61962e-08
8.57682e-10
2.06539e-08
9.18453e-09
-1.44408e-09
-1.10925e-09
-6.18997e-09
4.87389e-09
-1.46034e-08
1.72714e-08
-2.69912e-08
3.46656e-08
-4.35993e-08
5.58808e-08
-6.46121e-08
7.99098e-08
-9.01548e-08
1.059e-07
-1.20296e-07
1.33139e-07
-1.55055e-07
1.61034e-07
-1.94403e-07
1.89096e-07
-2.38271e-07
2.16927e-07
-2.86553e-07
2.44203e-07
-3.39115e-07
2.70666e-07
-3.95793e-07
2.96114e-07
-4.56406e-07
3.20391e-07
-5.20754e-07
3.43381e-07
-5.88623e-07
3.64998e-07
-6.5979e-07
3.85186e-07
-7.34024e-07
4.03911e-07
-8.1109e-07
4.21153e-07
-8.90751e-07