/*--------------------------------*- C++ -*----------------------------------*\
  =========                 |
  \\      /  F ield         | OpenFOAM: The Open Source CFD Toolbox
   \\    /   O peration     | Website:  https://openfoam.org
    \\  /    A nd           | Version:  9
     \\/     M anipulation  |
\*---------------------------------------------------------------------------*/
FoamFile
{
    format      ascii;
    class       volVectorField;
    location    "0.1";
    object      U;
}
// * * * * * * * * * * * * * * * * * * * * * * * * * * * * * * * * * * * * * //

dimensions      [0 1 -1 0 0 0 0];

internalField   nonuniform List<vector> 
16384
(
(1.2522e-05 -1.38986e-05 0)
(8.08029e-05 -4.53521e-05 0)
(0.000204222 -5.78423e-05 0)
(0.000336691 -5.57532e-05 0)
(0.00044553 -4.51095e-05 0)
(0.000514432 -2.98977e-05 0)
(0.000533882 -1.24031e-05 0)
(0.000498626 5.9442e-06 0)
(0.000406416 2.43555e-05 0)
(0.000256969 4.23763e-05 0)
(5.11498e-05 5.97231e-05 0)
(-0.000209187 7.6214e-05 0)
(-0.000521654 9.17664e-05 0)
(-0.000883558 0.000106295 0)
(-0.00129192 0.000119779 0)
(-0.00174366 0.000132241 0)
(-0.00223561 0.000143699 0)
(-0.00276467 0.000154153 0)
(-0.00332773 0.000163636 0)
(-0.00392177 0.000172201 0)
(-0.00454385 0.000179901 0)
(-0.00519119 0.000186773 0)
(-0.00586107 0.00019285 0)
(-0.00655091 0.000198189 0)
(-0.00725825 0.000202831 0)
(-0.00798075 0.000206802 0)
(-0.00871617 0.000210153 0)
(-0.00946238 0.000212912 0)
(-0.0102173 0.000215113 0)
(-0.0109791 0.000216793 0)
(-0.0117459 0.000217956 0)
(-0.0125158 0.000218608 0)
(-0.0132871 0.000218792 0)
(-0.0140582 0.000218528 0)
(-0.0148274 0.000217813 0)
(-0.0155932 0.00021666 0)
(-0.0163538 0.00021508 0)
(-0.0171079 0.000213078 0)
(-0.0178539 0.000210657 0)
(-0.0185902 0.000207821 0)
(-0.0193154 0.00020456 0)
(-0.0200279 0.000200869 0)
(-0.0207262 0.000196758 0)
(-0.0214088 0.000192228 0)
(-0.0220742 0.000187266 0)
(-0.0227208 0.000181862 0)
(-0.0233471 0.000176015 0)
(-0.0239515 0.000169728 0)
(-0.0245325 0.000162995 0)
(-0.0250885 0.000155808 0)
(-0.0256179 0.000148173 0)
(-0.0261192 0.000140087 0)
(-0.0265909 0.00013155 0)
(-0.0270313 0.000122563 0)
(-0.0274391 0.000113137 0)
(-0.0278126 0.000103287 0)
(-0.0281506 9.30228e-05 0)
(-0.0284515 8.23464e-05 0)
(-0.028714 7.12694e-05 0)
(-0.028937 5.98142e-05 0)
(-0.029119 4.80085e-05 0)
(-0.0292591 3.5877e-05 0)
(-0.0293562 2.34379e-05 0)
(-0.0294093 1.07148e-05 0)
(-0.0294175 -2.25734e-06 0)
(-0.0293803 -1.54373e-05 0)
(-0.0292969 -2.87799e-05 0)
(-0.0291671 -4.22419e-05 0)
(-0.0289904 -5.57835e-05 0)
(-0.0287667 -6.93604e-05 0)
(-0.0284961 -8.2922e-05 0)
(-0.0281788 -9.64164e-05 0)
(-0.0278151 -0.000109788 0)
(-0.0274056 -0.000122978 0)
(-0.0269511 -0.000135933 0)
(-0.0264525 -0.0001486 0)
(-0.0259109 -0.000160925 0)
(-0.0253277 -0.000172853 0)
(-0.0247043 -0.000184326 0)
(-0.0240424 -0.000195282 0)
(-0.023344 -0.000205661 0)
(-0.0226112 -0.000215405 0)
(-0.0218461 -0.000224454 0)
(-0.0210514 -0.000232755 0)
(-0.0202296 -0.00024026 0)
(-0.0193834 -0.000246928 0)
(-0.0185159 -0.000252717 0)
(-0.0176301 -0.000257589 0)
(-0.0167292 -0.000261509 0)
(-0.0158165 -0.000264445 0)
(-0.0148953 -0.000266371 0)
(-0.0139692 -0.000267265 0)
(-0.0130416 -0.00026711 0)
(-0.0121162 -0.00026589 0)
(-0.0111966 -0.000263593 0)
(-0.0102863 -0.000260217 0)
(-0.00938911 -0.000255768 0)
(-0.00850853 -0.000250257 0)
(-0.0076481 -0.000243704 0)
(-0.00681131 -0.000236135 0)
(-0.00600151 -0.000227578 0)
(-0.00522199 -0.000218061 0)
(-0.00447587 -0.000207625 0)
(-0.00376615 -0.000196319 0)
(-0.00309565 -0.000184197 0)
(-0.002467 -0.000171314 0)
(-0.00188264 -0.000157732 0)
(-0.00134476 -0.000143512 0)
(-0.000855329 -0.000128727 0)
(-0.000416038 -0.000113452 0)
(-2.82831e-05 -9.77743e-05 0)
(0.000306856 -8.17907e-05 0)
(0.000588646 -6.56033e-05 0)
(0.00081674 -4.93236e-05 0)
(0.000991223 -3.30761e-05 0)
(0.00111266 -1.70065e-05 0)
(0.00118218 -1.28814e-06 0)
(0.00120156 1.38664e-05 0)
(0.00117336 2.81907e-05 0)
(0.00110112 4.13411e-05 0)
(0.000989576 5.28563e-05 0)
(0.000845022 6.20978e-05 0)
(0.000675802 6.81504e-05 0)
(0.000493015 6.96945e-05 0)
(0.000311243 6.48934e-05 0)
(0.000149673 5.12489e-05 0)
(3.49678e-05 2.63816e-05 0)
(-3.35399e-06 -3.34368e-06 0)
(4.26863e-05 -7.99635e-05 0)
(0.00019342 -0.000196954 0)
(0.000424929 -0.000237021 0)
(0.00065207 -0.000216551 0)
(0.000815412 -0.000155814 0)
(0.000878467 -7.00134e-05 0)
(0.00081688 3.04793e-05 0)
(0.000615577 0.000138662 0)
(0.00026644 0.000249789 0)
(-0.000233653 0.0003607 0)
(-0.000884006 0.000469229 0)
(-0.00168141 0.000573973 0)
(-0.00262084 0.000673889 0)
(-0.00369592 0.000768372 0)
(-0.00489942 0.00085701 0)
(-0.0062236 0.000939619 0)
(-0.0076604 0.00101613 0)
(-0.00920159 0.00108655 0)
(-0.0108389 0.00115097 0)
(-0.0125643 0.00120956 0)
(-0.0143697 0.00126249 0)
(-0.0162474 0.00130999 0)
(-0.0181898 0.00135227 0)
(-0.0201898 0.00138955 0)
(-0.0222405 0.00142208 0)
(-0.024335 0.00145006 0)
(-0.026467 0.00147368 0)
(-0.0286304 0.00149319 0)
(-0.0308193 0.00150874 0)
(-0.0330279 0.00152049 0)
(-0.035251 0.00152858 0)
(-0.0374831 0.00153315 0)
(-0.0397193 0.00153432 0)
(-0.0419544 0.00153218 0)
(-0.0441839 0.00152681 0)
(-0.0464028 0.00151828 0)
(-0.0486067 0.00150664 0)
(-0.0507908 0.00149193 0)
(-0.0529507 0.00147418 0)
(-0.0550819 0.00145341 0)
(-0.05718 0.00142961 0)
(-0.0592404 0.00140278 0)
(-0.0612588 0.00137292 0)
(-0.0632306 0.00134002 0)
(-0.0651515 0.00130408 0)
(-0.0670168 0.00126505 0)
(-0.0688223 0.00122294 0)
(-0.0705633 0.00117773 0)
(-0.0722353 0.00112942 0)
(-0.0738339 0.001078 0)
(-0.0753545 0.00102349 0)
(-0.0767929 0.000965909 0)
(-0.0781444 0.000905274 0)
(-0.0794049 0.000841627 0)
(-0.0805701 0.000775022 0)
(-0.0816357 0.000705531 0)
(-0.0825978 0.000633239 0)
(-0.0834524 0.00055824 0)
(-0.0841958 0.00048065 0)
(-0.0848244 0.000400607 0)
(-0.0853349 0.00031826 0)
(-0.0857243 0.000233772 0)
(-0.0859895 0.000147326 0)
(-0.0861282 5.91314e-05 0)
(-0.0861381 -3.05732e-05 0)
(-0.0860173 -0.000121532 0)
(-0.0857642 -0.000213479 0)
(-0.0853779 -0.00030613 0)
(-0.0848575 -0.000399188 0)
(-0.0842028 -0.000492338 0)
(-0.0834141 -0.000585243 0)
(-0.0824921 -0.000677555 0)
(-0.0814378 -0.000768916 0)
(-0.0802531 -0.00085896 0)
(-0.0789402 -0.000947316 0)
(-0.0775018 -0.00103362 0)
(-0.0759413 -0.00111748 0)
(-0.0742623 -0.00119854 0)
(-0.0724694 -0.00127641 0)
(-0.0705675 -0.0013507 0)
(-0.0685618 -0.00142103 0)
(-0.0664586 -0.00148702 0)
(-0.0642641 -0.00154831 0)
(-0.0619855 -0.00160456 0)
(-0.05963 -0.00165545 0)
(-0.0572057 -0.00170067 0)
(-0.0547207 -0.00173997 0)
(-0.0521837 -0.00177307 0)
(-0.0496038 -0.00179976 0)
(-0.0469902 -0.00181984 0)
(-0.0443524 -0.00183313 0)
(-0.0417003 -0.00183949 0)
(-0.0390437 -0.00183881 0)
(-0.0363928 -0.001831 0)
(-0.0337577 -0.00181603 0)
(-0.0311485 -0.00179389 0)
(-0.0285754 -0.00176462 0)
(-0.0260485 -0.00172831 0)
(-0.0235777 -0.00168507 0)
(-0.0211725 -0.00163507 0)
(-0.0188425 -0.00157852 0)
(-0.0165968 -0.00151564 0)
(-0.0144441 -0.0014467 0)
(-0.0123928 -0.00137203 0)
(-0.0104506 -0.00129198 0)
(-0.008625 -0.00120693 0)
(-0.00692259 -0.00111733 0)
(-0.00534946 -0.00102363 0)
(-0.00391092 -0.000926349 0)
(-0.00261154 -0.00082604 0)
(-0.00145503 -0.000723317 0)
(-0.000444143 -0.000618851 0)
(0.000419363 -0.000513378 0)
(0.00113488 -0.00040771 0)
(0.00170305 -0.000302761 0)
(0.00212595 -0.000199575 0)
(0.00240727 -9.93632e-05 0)
(0.00255254 -3.56503e-06 0)
(0.00256952 8.60832e-05 0)
(0.00246853 0.00016745 0)
(0.00226303 0.000237863 0)
(0.00197022 0.000293906 0)
(0.00161195 0.000331165 0)
(0.00121557 0.000343987 0)
(0.000814319 0.000325456 0)
(0.00044742 0.000267768 0)
(0.000165195 0.000165372 0)
(2.62881e-05 3.4914e-05 0)
(5.58778e-05 -0.000201591 0)
(0.000233264 -0.000426559 0)
(0.000480253 -0.000484921 0)
(0.000692202 -0.000412338 0)
(0.000796554 -0.000246736 0)
(0.00074607 -1.87801e-05 0)
(0.00050746 0.000248657 0)
(5.8531e-05 0.000538846 0)
(-0.000613702 0.000839619 0)
(-0.00151503 0.00114238 0)
(-0.00264592 0.00144097 0)
(-0.00400282 0.00173098 0)
(-0.00557913 0.00200936 0)
(-0.00736612 0.00227399 0)
(-0.00935358 0.00252349 0)
(-0.0115302 0.00275703 0)
(-0.013884 0.00297417 0)
(-0.0164028 0.00317478 0)
(-0.0190739 0.00335896 0)
(-0.021885 0.00352698 0)
(-0.0248238 0.00367924 0)
(-0.0278782 0.0038162 0)
(-0.0310364 0.0039384 0)
(-0.034287 0.00404642 0)
(-0.037619 0.00414078 0)
(-0.0410218 0.00422207 0)
(-0.0444851 0.00429083 0)
(-0.047999 0.00434757 0)
(-0.0515539 0.00439279 0)
(-0.0551408 0.00442692 0)
(-0.0587507 0.00445034 0)
(-0.062375 0.00446342 0)
(-0.0660055 0.00446649 0)
(-0.0696339 0.00445982 0)
(-0.0732525 0.00444361 0)
(-0.0768534 0.00441808 0)
(-0.0804291 0.00438336 0)
(-0.0839719 0.00433959 0)
(-0.0874746 0.00428683 0)
(-0.0909297 0.00422515 0)
(-0.0943298 0.00415456 0)
(-0.0976678 0.00407508 0)
(-0.100936 0.00398671 0)
(-0.104128 0.00388944 0)
(-0.107236 0.00378324 0)
(-0.110252 0.00366808 0)
(-0.11317 0.00354395 0)
(-0.115982 0.00341083 0)
(-0.118681 0.00326873 0)
(-0.121259 0.00311768 0)
(-0.12371 0.00295772 0)
(-0.126027 0.00278892 0)
(-0.128201 0.00261138 0)
(-0.130228 0.00242524 0)
(-0.132098 0.00223066 0)
(-0.133807 0.00202786 0)
(-0.135347 0.0018171 0)
(-0.136713 0.00159868 0)
(-0.137898 0.00137296 0)
(-0.138898 0.00114034 0)
(-0.139706 0.000901258 0)
(-0.140318 0.000656207 0)
(-0.14073 0.000405743 0)
(-0.140937 0.000150478 0)
(-0.140937 -0.000108914 0)
(-0.140726 -0.000371706 0)
(-0.140302 -0.000637134 0)
(-0.139663 -0.000904387 0)
(-0.13881 -0.00117261 0)
(-0.13774 -0.00144088 0)
(-0.136456 -0.00170827 0)
(-0.134957 -0.00197379 0)
(-0.133247 -0.00223641 0)
(-0.131328 -0.00249512 0)
(-0.129203 -0.00274885 0)
(-0.126878 -0.00299654 0)
(-0.124357 -0.00323712 0)
(-0.121647 -0.00346952 0)
(-0.118755 -0.00369264 0)
(-0.115689 -0.00390543 0)
(-0.112457 -0.00410681 0)
(-0.109069 -0.00429574 0)
(-0.105536 -0.00447121 0)
(-0.101869 -0.00463228 0)
(-0.0980782 -0.00477803 0)
(-0.0941777 -0.00490761 0)
(-0.0901803 -0.00502025 0)
(-0.0860997 -0.00511525 0)
(-0.0819502 -0.00519195 0)
(-0.0777465 -0.00524979 0)
(-0.0735038 -0.00528829 0)
(-0.0692376 -0.00530706 0)
(-0.0649636 -0.0053058 0)
(-0.0606978 -0.0052843 0)
(-0.0564562 -0.00524247 0)
(-0.0522549 -0.0051803 0)
(-0.0481099 -0.00509794 0)
(-0.044037 -0.0049956 0)
(-0.0400519 -0.00487366 0)
(-0.0361698 -0.00473256 0)
(-0.0324057 -0.00457288 0)
(-0.0287739 -0.00439531 0)
(-0.0252882 -0.00420065 0)
(-0.0219617 -0.00398978 0)
(-0.0188067 -0.00376374 0)
(-0.0158347 -0.00352366 0)
(-0.0130561 -0.00327079 0)
(-0.0104805 -0.00300649 0)
(-0.00811604 -0.00273226 0)
(-0.0059698 -0.00244974 0)
(-0.00404738 -0.0021607 0)
(-0.00235292 -0.0018671 0)
(-0.000888871 -0.0015711 0)
(0.000344116 -0.00127507 0)
(0.00134743 -0.000981687 0)
(0.00212472 -0.000693972 0)
(0.00268217 -0.000415396 0)
(0.00302885 -0.000150003 0)
(0.00317714 9.74336e-05 0)
(0.00314325 0.000321205 0)
(0.00294781 0.000514404 0)
(0.00261657 0.000668612 0)
(0.00218121 0.000773596 0)
(0.00168008 0.00081716 0)
(0.00115791 0.000785593 0)
(0.000665104 0.000665189 0)
(0.000267328 0.000447447 0)
(5.09916e-05 0.000149314 0)
(5.46141e-05 -0.000331315 0)
(0.000214276 -0.000651476 0)
(0.000408766 -0.000696418 0)
(0.00052572 -0.000529719 0)
(0.000486936 -0.000208721 0)
(0.000240237 0.000219654 0)
(-0.000252496 0.000718728 0)
(-0.00101757 0.00126043 0)
(-0.00207098 0.00182382 0)
(-0.00342057 0.00239321 0)
(-0.0050677 0.00295707 0)
(-0.00700876 0.00350694 0)
(-0.00923628 0.00403676 0)
(-0.0117399 0.00454216 0)
(-0.0145071 0.00502022 0)
(-0.0175239 0.00546903 0)
(-0.0207753 0.00588746 0)
(-0.0242457 0.00627503 0)
(-0.027919 0.0066317 0)
(-0.0317792 0.0069578 0)
(-0.0358103 0.00725389 0)
(-0.0399964 0.00752071 0)
(-0.044322 0.00775916 0)
(-0.0487721 0.00797021 0)
(-0.0533318 0.00815481 0)
(-0.057987 0.00831395 0)
(-0.0627238 0.00844863 0)
(-0.0675289 0.00855981 0)
(-0.0723894 0.00864831 0)
(-0.0772928 0.00871496 0)
(-0.082227 0.00876052 0)
(-0.0871802 0.00878565 0)
(-0.0921411 0.00879094 0)
(-0.0970985 0.00877692 0)
(-0.102041 0.008744 0)
(-0.106959 0.00869254 0)
(-0.111842 0.00862286 0)
(-0.116678 0.0085352 0)
(-0.121459 0.00842969 0)
(-0.126173 0.00830647 0)
(-0.13081 0.00816561 0)
(-0.135361 0.00800715 0)
(-0.139816 0.00783111 0)
(-0.144165 0.00763747 0)
(-0.148397 0.00742622 0)
(-0.152503 0.00719736 0)
(-0.156472 0.00695086 0)
(-0.160296 0.00668674 0)
(-0.163963 0.00640504 0)
(-0.167465 0.00610583 0)
(-0.170791 0.00578923 0)
(-0.173933 0.00545541 0)
(-0.176879 0.0051046 0)
(-0.179622 0.00473709 0)
(-0.182152 0.00435324 0)
(-0.184461 0.00395349 0)
(-0.186539 0.00353838 0)
(-0.188378 0.00310851 0)
(-0.189972 0.00266461 0)
(-0.191311 0.00220747 0)
(-0.19239 0.00173799 0)
(-0.193203 0.00125714 0)
(-0.193742 0.000766036 0)
(-0.194004 0.000265877 0)
(-0.193984 -0.000242028 0)
(-0.193679 -0.000756274 0)
(-0.193085 -0.00127536 0)
(-0.1922 -0.00179771 0)
(-0.191024 -0.00232165 0)
(-0.189556 -0.00284541 0)
(-0.187797 -0.00336718 0)
(-0.18575 -0.00388506 0)
(-0.183416 -0.00439708 0)
(-0.180801 -0.00490126 0)
(-0.177908 -0.00539556 0)
(-0.174745 -0.00587791 0)
(-0.171318 -0.00634626 0)
(-0.167637 -0.00679851 0)
(-0.16371 -0.0072326 0)
(-0.159548 -0.00764646 0)
(-0.155164 -0.00803807 0)
(-0.15057 -0.00840544 0)
(-0.14578 -0.00874667 0)
(-0.140809 -0.00905992 0)
(-0.135673 -0.00934346 0)
(-0.130388 -0.00959567 0)
(-0.124972 -0.00981504 0)
(-0.119444 -0.0100002 0)
(-0.113823 -0.0101499 0)
(-0.108128 -0.0102632 0)
(-0.10238 -0.010339 0)
(-0.0965994 -0.0103766 0)
(-0.0908069 -0.0103755 0)
(-0.085024 -0.0103354 0)
(-0.0792721 -0.0102559 0)
(-0.0735726 -0.0101373 0)
(-0.0679469 -0.00997965 0)
(-0.0624159 -0.00978351 0)
(-0.0570006 -0.00954954 0)
(-0.0517212 -0.00927865 0)
(-0.0465976 -0.00897196 0)
(-0.0416489 -0.00863079 0)
(-0.0368933 -0.00825671 0)
(-0.0323483 -0.00785148 0)
(-0.0280302 -0.0074171 0)
(-0.0239541 -0.00695578 0)
(-0.020134 -0.00646997 0)
(-0.0165823 -0.00596236 0)
(-0.0133098 -0.00543589 0)
(-0.0103257 -0.00489375 0)
(-0.00763732 -0.00433945 0)
(-0.00524986 -0.00377683 0)
(-0.00316637 -0.00321011 0)
(-0.00138742 -0.00264392 0)
(8.91079e-05 -0.00208348 0)
(0.00126829 -0.00153462 0)
(0.00215854 -0.00100398 0)
(0.00277192 -0.000499183 0)
(0.0031247 -2.9082e-05 0)
(0.00323778 0.000395961 0)
(0.00313732 0.000763728 0)
(0.00285535 0.0010598 0)
(0.00243048 0.00126728 0)
(0.0019084 0.00136681 0)
(0.00134137 0.00133737 0)
(0.000787661 0.00115834 0)
(0.000325425 0.000814584 0)
(6.4534e-05 0.000310441 0)
(4.49426e-05 -0.000439599 0)
(0.000155731 -0.000813588 0)
(0.000245363 -0.000799632 0)
(0.000205322 -0.000490471 0)
(-4.20919e-05 3.70508e-05 0)
(-0.000550684 0.000719636 0)
(-0.00136033 0.00150666 0)
(-0.00249887 0.0023587 0)
(-0.00398371 0.00324526 0)
(-0.00582365 0.00414299 0)
(-0.00802053 0.00503424 0)
(-0.0105705 0.00590575 0)
(-0.0134654 0.00674771 0)
(-0.0166936 0.00755302 0)
(-0.0202407 0.00831668 0)
(-0.0240908 0.00903531 0)
(-0.0282263 0.00970679 0)
(-0.0326288 0.01033 0)
(-0.0372794 0.0109047 0)
(-0.0421589 0.0114311 0)
(-0.0472482 0.0119097 0)
(-0.052528 0.0123418 0)
(-0.0579797 0.0127283 0)
(-0.0635847 0.0130708 0)
(-0.0693252 0.0133707 0)
(-0.0751835 0.0136293 0)
(-0.0811426 0.0138483 0)
(-0.0871861 0.0140289 0)
(-0.0932978 0.0141726 0)
(-0.0994621 0.0142805 0)
(-0.105664 0.0143539 0)
(-0.111889 0.0143937 0)
(-0.118122 0.0144009 0)
(-0.124349 0.0143763 0)
(-0.130558 0.0143206 0)
(-0.136733 0.0142343 0)
(-0.142862 0.014118 0)
(-0.148933 0.013972 0)
(-0.154931 0.0137967 0)
(-0.160844 0.0135921 0)
(-0.16666 0.0133585 0)
(-0.172365 0.0130959 0)
(-0.177948 0.0128044 0)
(-0.183395 0.0124841 0)
(-0.188694 0.0121349 0)
(-0.193833 0.0117568 0)
(-0.198799 0.0113499 0)
(-0.20358 0.0109143 0)
(-0.208164 0.01045 0)
(-0.212537 0.0099572 0)
(-0.216689 0.00943615 0)
(-0.220608 0.00888716 0)
(-0.224281 0.00831065 0)
(-0.227697 0.00770713 0)
(-0.230845 0.00707723 0)
(-0.233714 0.00642172 0)
(-0.236294 0.00574148 0)
(-0.238575 0.00503755 0)
(-0.240546 0.00431112 0)
(-0.2422 0.0035635 0)
(-0.243527 0.00279619 0)
(-0.244521 0.00201082 0)
(-0.245174 0.00120921 0)
(-0.24548 0.000393319 0)
(-0.245433 -0.000434732 0)
(-0.245031 -0.00127266 0)
(-0.244269 -0.00211804 0)
(-0.243145 -0.00296828 0)
(-0.241658 -0.00382068 0)
(-0.239808 -0.00467242 0)
(-0.237596 -0.00552054 0)
(-0.235026 -0.00636199 0)
(-0.2321 -0.00719362 0)
(-0.228824 -0.00801222 0)
(-0.225204 -0.00881452 0)
(-0.221249 -0.0095972 0)
(-0.216967 -0.0103569 0)
(-0.212368 -0.0110904 0)
(-0.207466 -0.0117942 0)
(-0.202273 -0.0124652 0)
(-0.196804 -0.0131 0)
(-0.191074 -0.0136955 0)
(-0.185102 -0.0142487 0)
(-0.178905 -0.0147566 0)
(-0.172503 -0.0152165 0)
(-0.165916 -0.0156258 0)
(-0.159168 -0.015982 0)
(-0.152279 -0.0162831 0)
(-0.145273 -0.0165269 0)
(-0.138176 -0.0167119 0)
(-0.131011 -0.0168366 0)
(-0.123804 -0.0168997 0)
(-0.116581 -0.0169005 0)
(-0.109368 -0.0168383 0)
(-0.10219 -0.016713 0)
(-0.0950756 -0.0165244 0)
(-0.0880493 -0.0162732 0)
(-0.0811373 -0.0159601 0)
(-0.0743652 -0.0155861 0)
(-0.0677578 -0.0151528 0)
(-0.0613395 -0.0146619 0)
(-0.0551335 -0.0141156 0)
(-0.0491622 -0.0135165 0)
(-0.0434471 -0.0128673 0)
(-0.0380079 -0.0121715 0)
(-0.0328633 -0.0114325 0)
(-0.0280301 -0.0106544 0)
(-0.0235234 -0.00984146 0)
(-0.0193564 -0.00899856 0)
(-0.0155403 -0.00813087 0)
(-0.0120837 -0.00724411 0)
(-0.00899299 -0.0063445 0)
(-0.00627158 -0.00543887 0)
(-0.00392005 -0.00453475 0)
(-0.00193569 -0.00364047 0)
(-0.000312216 -0.00276535 0)
(0.000960579 -0.00191987 0)
(0.0018972 -0.00111595 0)
(0.00251691 -0.000367196 0)
(0.00284421 0.000310742 0)
(0.00290934 0.000899786 0)
(0.00274882 0.00137909 0)
(0.00240603 0.00172481 0)
(0.00193173 0.0019102 0)
(0.00138347 0.00190638 0)
(0.000825653 0.00168425 0)
(0.000345893 0.0012181 0)
(6.94752e-05 0.000492168 0)
(3.0517e-05 -0.000509325 0)
(7.13693e-05 -0.000876018 0)
(1.74389e-05 -0.000746886 0)
(-0.000226806 -0.00024053 0)
(-0.000733857 0.000547386 0)
(-0.00155656 0.00153781 0)
(-0.00273395 0.00266692 0)
(-0.00429348 0.00388391 0)
(-0.00625252 0.00514875 0)
(-0.00861975 0.00643023 0)
(-0.0113967 0.00770416 0)
(-0.0145792 0.00895211 0)
(-0.018158 0.0101601 0)
(-0.0221204 0.0113178 0)
(-0.0264506 0.0124178 0)
(-0.0311308 0.0134549 0)
(-0.0361412 0.0144258 0)
(-0.0414613 0.0153285 0)
(-0.0470696 0.0161621 0)
(-0.0529443 0.0169268 0)
(-0.0590633 0.0176232 0)
(-0.0654048 0.0182525 0)
(-0.0719471 0.0188162 0)
(-0.0786688 0.019316 0)
(-0.085549 0.0197538 0)
(-0.0925671 0.0201317 0)
(-0.0997032 0.0204515 0)
(-0.106938 0.0207152 0)
(-0.114252 0.0209246 0)
(-0.121627 0.0210814 0)
(-0.129046 0.0211873 0)
(-0.136489 0.0212437 0)
(-0.143942 0.0212518 0)
(-0.151386 0.0212129 0)
(-0.158805 0.0211279 0)
(-0.166184 0.0209976 0)
(-0.173506 0.0208228 0)
(-0.180755 0.0206039 0)
(-0.187917 0.0203415 0)
(-0.194975 0.0200358 0)
(-0.201914 0.019687 0)
(-0.20872 0.0192955 0)
(-0.215377 0.0188612 0)
(-0.22187 0.0183842 0)
(-0.228184 0.0178646 0)
(-0.234305 0.0173025 0)
(-0.240218 0.016698 0)
(-0.245907 0.0160513 0)
(-0.251358 0.0153624 0)
(-0.256558 0.0146318 0)
(-0.261491 0.0138598 0)
(-0.266143 0.013047 0)
(-0.270502 0.012194 0)
(-0.274552 0.0113016 0)
(-0.278282 0.0103708 0)
(-0.281678 0.0094028 0)
(-0.284729 0.00839893 0)
(-0.287421 0.00736075 0)
(-0.289746 0.00629004 0)
(-0.291691 0.00518876 0)
(-0.293248 0.00405914 0)
(-0.294407 0.00290361 0)
(-0.295161 0.00172484 0)
(-0.295502 0.000525719 0)
(-0.295426 -0.000690635 0)
(-0.294926 -0.00192088 0)
(-0.294 -0.00316146 0)
(-0.292644 -0.00440861 0)
(-0.290859 -0.00565839 0)
(-0.288644 -0.00690667 0)
(-0.286001 -0.00814917 0)
(-0.282933 -0.00938145 0)
(-0.279444 -0.0105989 0)
(-0.275542 -0.011797 0)
(-0.271234 -0.0129709 0)
(-0.266529 -0.0141157 0)
(-0.261438 -0.0152268 0)
(-0.255973 -0.0162992 0)
(-0.25015 -0.0173282 0)
(-0.243983 -0.018309 0)
(-0.23749 -0.019237 0)
(-0.23069 -0.0201076 0)
(-0.223603 -0.0209163 0)
(-0.21625 -0.0216591 0)
(-0.208655 -0.0223319 0)
(-0.200842 -0.022931 0)
(-0.192836 -0.023453 0)
(-0.184663 -0.0238946 0)
(-0.176352 -0.0242531 0)
(-0.167931 -0.024526 0)
(-0.159428 -0.0247112 0)
(-0.150873 -0.024807 0)
(-0.142297 -0.0248123 0)
(-0.133729 -0.0247261 0)
(-0.125202 -0.0245482 0)
(-0.116744 -0.0242787 0)
(-0.108387 -0.0239183 0)
(-0.100161 -0.0234679 0)
(-0.0920962 -0.0229294 0)
(-0.0842207 -0.0223047 0)
(-0.0765632 -0.0215966 0)
(-0.0691511 -0.0208083 0)
(-0.0620103 -0.0199433 0)
(-0.0551658 -0.0190061 0)
(-0.0486407 -0.0180011 0)
(-0.0424567 -0.0169339 0)
(-0.0366333 -0.0158101 0)
(-0.0311882 -0.0146362 0)
(-0.0261367 -0.0134191 0)
(-0.0214915 -0.0121666 0)
(-0.0172629 -0.0108869 0)
(-0.013458 -0.00958907 0)
(-0.0100808 -0.00828309 0)
(-0.00713207 -0.00697984 0)
(-0.00460853 -0.00569131 0)
(-0.00250308 -0.00443085 0)
(-0.000804158 -0.0032133 0)
(0.000504553 -0.00205536 0)
(0.00144454 -0.000975872 0)
(0.00204291 3.80685e-06 0)
(0.00233279 0.000859422 0)
(0.00235382 0.00156346 0)
(0.00215265 0.00208494 0)
(0.00178351 0.00238944 0)
(0.00130779 0.00243962 0)
(0.000794495 0.00219649 0)
(0.000337249 0.00162136 0)
(6.84554e-05 0.000676292 0)
(1.35351e-05 -0.000530196 0)
(-2.94123e-05 -0.000812926 0)
(-0.000254362 -0.000502159 0)
(-0.00073795 0.000262016 0)
(-0.0015439 0.00136709 0)
(-0.00272157 0.00271972 0)
(-0.00430743 0.00424366 0)
(-0.00632696 0.00587732 0)
(-0.00879602 0.00757148 0)
(-0.0117222 0.00928712 0)
(-0.0151062 0.0109935 0)
(-0.0189425 0.0126668 0)
(-0.0232213 0.0142886 0)
(-0.0279282 0.0158453 0)
(-0.0330462 0.0173266 0)
(-0.0385556 0.0187254 0)
(-0.0444351 0.0200367 0)
(-0.050662 0.0212578 0)
(-0.0572126 0.022387 0)
(-0.0640627 0.023424 0)
(-0.0711881 0.0243695 0)
(-0.0785643 0.0252247 0)
(-0.0861669 0.0259914 0)
(-0.093972 0.0266717 0)
(-0.101956 0.027268 0)
(-0.110096 0.0277825 0)
(-0.118369 0.0282179 0)
(-0.126752 0.0285766 0)
(-0.135225 0.0288609 0)
(-0.143766 0.029073 0)
(-0.152355 0.0292151 0)
(-0.160971 0.029289 0)
(-0.169595 0.0292964 0)
(-0.178207 0.0292388 0)
(-0.186789 0.0291175 0)
(-0.195321 0.0289336 0)
(-0.203785 0.0286881 0)
(-0.212164 0.0283818 0)
(-0.220439 0.0280151 0)
(-0.228592 0.0275887 0)
(-0.236605 0.0271027 0)
(-0.244462 0.0265576 0)
(-0.252145 0.0259536 0)
(-0.259636 0.0252907 0)
(-0.266918 0.0245691 0)
(-0.273975 0.0237891 0)
(-0.280788 0.0229507 0)
(-0.287341 0.0220543 0)
(-0.293618 0.0211002 0)
(-0.299602 0.0200889 0)
(-0.305276 0.0190211 0)
(-0.310625 0.0178974 0)
(-0.315632 0.016719 0)
(-0.320283 0.0154869 0)
(-0.324562 0.0142026 0)
(-0.328456 0.0128678 0)
(-0.33195 0.0114843 0)
(-0.33503 0.0100543 0)
(-0.337686 0.0085804 0)
(-0.339904 0.00706524 0)
(-0.341674 0.00551193 0)
(-0.342987 0.00392384 0)
(-0.343833 0.00230462 0)
(-0.344204 0.000658263 0)
(-0.344095 -0.00101095 0)
(-0.3435 -0.00269846 0)
(-0.342415 -0.00439939 0)
(-0.340838 -0.00610863 0)
(-0.338767 -0.0078208 0)
(-0.336204 -0.00953029 0)
(-0.33315 -0.0112313 0)
(-0.329609 -0.0129177 0)
(-0.325587 -0.0145834 0)
(-0.321092 -0.0162221 0)
(-0.316131 -0.0178273 0)
(-0.310716 -0.0193926 0)
(-0.30486 -0.0209114 0)
(-0.298576 -0.0223771 0)
(-0.291882 -0.0237834 0)
(-0.284795 -0.0251238 0)
(-0.277335 -0.026392 0)
(-0.269523 -0.0275818 0)
(-0.261382 -0.0286875 0)
(-0.252937 -0.0297032 0)
(-0.244214 -0.0306237 0)
(-0.235241 -0.031444 0)
(-0.226045 -0.0321592 0)
(-0.216658 -0.0327653 0)
(-0.207111 -0.0332584 0)
(-0.197435 -0.0336352 0)
(-0.187664 -0.0338929 0)
(-0.177831 -0.0340293 0)
(-0.16797 -0.0340427 0)
(-0.158115 -0.0339321 0)
(-0.148302 -0.033697 0)
(-0.138565 -0.0333375 0)
(-0.128939 -0.0328547 0)
(-0.119457 -0.03225 0)
(-0.110153 -0.0315257 0)
(-0.101061 -0.0306846 0)
(-0.0922117 -0.0297304 0)
(-0.0836366 -0.0286675 0)
(-0.075365 -0.0275007 0)
(-0.0674251 -0.026236 0)
(-0.059843 -0.0248797 0)
(-0.0526431 -0.0234391 0)
(-0.0458476 -0.0219221 0)
(-0.0394765 -0.0203374 0)
(-0.0335469 -0.0186946 0)
(-0.0280734 -0.0170041 0)
(-0.0230673 -0.0152772 0)
(-0.018537 -0.0135261 0)
(-0.014487 -0.0117644 0)
(-0.0109181 -0.0100068 0)
(-0.00782703 -0.00826922 0)
(-0.00520612 -0.00656955 0)
(-0.0030429 -0.00492739 0)
(-0.00131983 -0.00336458 0)
(-1.38832e-05 -0.00190551 0)
(0.000903792 -0.000577494 0)
(0.00146827 0.000588834 0)
(0.00172125 0.00155916 0)
(0.00171152 0.0022952 0)
(0.00149559 0.00275464 0)
(0.00113741 0.0028912 0)
(0.00070912 0.0026553 0)
(0.000306911 0.00199445 0)
(6.34098e-05 0.000849551 0)
(-4.79187e-06 -0.000495919 0)
(-0.000140245 -0.000606338 0)
(-0.000555144 -3.91226e-05 0)
(-0.00130364 0.00104891 0)
(-0.00243787 0.00253107 0)
(-0.00400211 0.00430141 0)
(-0.00602867 0.00627237 0)
(-0.00853959 0.00837256 0)
(-0.0115482 0.0105441 0)
(-0.01506 0.0127405 0)
(-0.019074 0.0149247 0)
(-0.0235834 0.0170674 0)
(-0.0285766 0.0191459 0)
(-0.034038 0.0211429 0)
(-0.0399492 0.0230454 0)
(-0.0462887 0.024844 0)
(-0.0530335 0.0265323 0)
(-0.060159 0.028106 0)
(-0.0676397 0.029563 0)
(-0.0754493 0.0309025 0)
(-0.0835614 0.0321249 0)
(-0.0919491 0.0332314 0)
(-0.100586 0.0342241 0)
(-0.109446 0.0351052 0)
(-0.118502 0.0358777 0)
(-0.12773 0.0365443 0)
(-0.137104 0.0371081 0)
(-0.1466 0.037572 0)
(-0.156193 0.0379388 0)
(-0.165859 0.0382114 0)
(-0.175577 0.0383922 0)
(-0.185322 0.0384836 0)
(-0.195074 0.0384878 0)
(-0.20481 0.0384065 0)
(-0.214509 0.0382416 0)
(-0.22415 0.0379943 0)
(-0.233711 0.0376658 0)
(-0.243174 0.0372572 0)
(-0.252517 0.0367693 0)
(-0.261719 0.0362027 0)
(-0.270762 0.0355578 0)
(-0.279626 0.0348351 0)
(-0.28829 0.034035 0)
(-0.296736 0.0331576 0)
(-0.304943 0.0322032 0)
(-0.312893 0.0311722 0)
(-0.320567 0.0300648 0)
(-0.327945 0.0288816 0)
(-0.335009 0.027623 0)
(-0.34174 0.0262897 0)
(-0.34812 0.0248828 0)
(-0.354131 0.0234032 0)
(-0.359756 0.0218523 0)
(-0.364977 0.0202319 0)
(-0.369779 0.0185437 0)
(-0.374144 0.01679 0)
(-0.378058 0.0149735 0)
(-0.381506 0.0130969 0)
(-0.384475 0.0111637 0)
(-0.386951 0.00917738 0)
(-0.388922 0.00714208 0)
(-0.390379 0.00506222 0)
(-0.391311 0.00294259 0)
(-0.39171 0.000788416 0)
(-0.391569 -0.00139472 0)
(-0.390882 -0.00360085 0)
(-0.389645 -0.00582365 0)
(-0.387856 -0.00805647 0)
(-0.385514 -0.0102923 0)
(-0.38262 -0.012524 0)
(-0.379176 -0.0147438 0)
(-0.375187 -0.016944 0)
(-0.37066 -0.0191167 0)
(-0.365601 -0.0212535 0)
(-0.360023 -0.0233464 0)
(-0.353936 -0.0253868 0)
(-0.347355 -0.0273664 0)
(-0.340296 -0.0292767 0)
(-0.332777 -0.0311095 0)
(-0.324819 -0.0328564 0)
(-0.316443 -0.0345093 0)
(-0.307672 -0.0360604 0)
(-0.298534 -0.0375021 0)
(-0.289054 -0.0388271 0)
(-0.279262 -0.0400285 0)
(-0.269188 -0.0410998 0)
(-0.258864 -0.0420351 0)
(-0.248324 -0.0428289 0)
(-0.237603 -0.0434764 0)
(-0.226734 -0.0439732 0)
(-0.215756 -0.0443158 0)
(-0.204705 -0.0445014 0)
(-0.193618 -0.0445278 0)
(-0.182535 -0.0443937 0)
(-0.171494 -0.0440984 0)
(-0.160532 -0.0436424 0)
(-0.149688 -0.0430267 0)
(-0.139 -0.0422534 0)
(-0.128504 -0.0413253 0)
(-0.118239 -0.0402463 0)
(-0.108238 -0.039021 0)
(-0.0985358 -0.037655 0)
(-0.0891654 -0.0361549 0)
(-0.0801577 -0.0345282 0)
(-0.0715418 -0.0327832 0)
(-0.0633446 -0.0309293 0)
(-0.0555907 -0.0289767 0)
(-0.0483022 -0.026937 0)
(-0.0414982 -0.0248223 0)
(-0.0351948 -0.0226462 0)
(-0.0294048 -0.0204233 0)
(-0.0241375 -0.0181695 0)
(-0.019398 -0.015902 0)
(-0.0151878 -0.0136398 0)
(-0.0115035 -0.0114032 0)
(-0.00833734 -0.00921493 0)
(-0.00567632 -0.00709954 0)
(-0.00350219 -0.00508432 0)
(-0.00179104 -0.00319941 0)
(-0.000512963 -0.00147824 0)
(0.000368278 4.20589e-05 0)
(0.000895591 0.0013203 0)
(0.00111903 0.00231084 0)
(0.00109634 0.00296334 0)
(0.000892895 0.00322245 0)
(0.000582441 0.00302788 0)
(0.000260834 0.00231379 0)
(5.57179e-05 0.00100238 0)
(-2.37386e-05 -0.000402794 0)
(-0.000256985 -0.000244565 0)
(-0.000874435 0.000660527 0)
(-0.00190567 0.00214333 0)
(-0.00338975 0.00406559 0)
(-0.00536444 0.00631064 0)
(-0.00785658 0.00878114 0)
(-0.0108837 0.0113968 0)
(-0.0144556 0.014092 0)
(-0.0185749 0.0168131 0)
(-0.0232383 0.019517 0)
(-0.028437 0.0221695 0)
(-0.0341576 0.0247435 0)
(-0.0403828 0.0272181 0)
(-0.0470924 0.0295774 0)
(-0.0542634 0.0318099 0)
(-0.0618711 0.0339073 0)
(-0.0698891 0.0358642 0)
(-0.07829 0.0376775 0)
(-0.0870459 0.0393459 0)
(-0.096128 0.0408695 0)
(-0.105508 0.0422497 0)
(-0.115157 0.0434884 0)
(-0.125046 0.0445883 0)
(-0.135148 0.0455525 0)
(-0.145434 0.0463844 0)
(-0.155877 0.0470875 0)
(-0.166451 0.0476651 0)
(-0.177129 0.0481206 0)
(-0.187885 0.0484574 0)
(-0.198694 0.0486784 0)
(-0.209531 0.0487865 0)
(-0.220371 0.0487842 0)
(-0.231191 0.0486738 0)
(-0.241967 0.0484572 0)
(-0.252676 0.0481363 0)
(-0.263294 0.0477125 0)
(-0.273799 0.0471869 0)
(-0.284168 0.0465608 0)
(-0.29438 0.0458347 0)
(-0.304412 0.0450095 0)
(-0.314242 0.0440857 0)
(-0.323848 0.0430637 0)
(-0.333209 0.0419439 0)
(-0.342303 0.0407268 0)
(-0.35111 0.0394127 0)
(-0.359607 0.0380024 0)
(-0.367774 0.0364962 0)
(-0.375591 0.0348952 0)
(-0.383037 0.0332002 0)
(-0.390092 0.0314125 0)
(-0.396737 0.0295336 0)
(-0.402951 0.0275653 0)
(-0.408717 0.0255097 0)
(-0.414017 0.0233694 0)
(-0.418833 0.0211472 0)
(-0.423148 0.0188466 0)
(-0.426946 0.0164711 0)
(-0.430214 0.0140251 0)
(-0.432936 0.0115131 0)
(-0.4351 0.00894038 0)
(-0.436694 0.00631248 0)
(-0.437709 0.00363551 0)
(-0.438135 0.000916036 0)
(-0.437964 -0.0018389 0)
(-0.437191 -0.0046218 0)
(-0.435811 -0.00742474 0)
(-0.433822 -0.0102394 0)
(-0.431224 -0.0130569 0)
(-0.428017 -0.0158683 0)
(-0.424204 -0.0186641 0)
(-0.419791 -0.0214345 0)
(-0.414784 -0.0241696 0)
(-0.409193 -0.0268592 0)
(-0.40303 -0.0294929 0)
(-0.396306 -0.0320604 0)
(-0.389039 -0.0345511 0)
(-0.381245 -0.0369546 0)
(-0.372945 -0.0392605 0)
(-0.364161 -0.0414585 0)
(-0.354915 -0.0435386 0)
(-0.345236 -0.045491 0)
(-0.335149 -0.0473063 0)
(-0.324686 -0.0489754 0)
(-0.313878 -0.0504898 0)
(-0.302758 -0.0518414 0)
(-0.29136 -0.0530228 0)
(-0.279721 -0.0540273 0)
(-0.26788 -0.0548488 0)
(-0.255873 -0.0554821 0)
(-0.243742 -0.0559226 0)
(-0.231526 -0.0561669 0)
(-0.219266 -0.0562123 0)
(-0.207005 -0.0560572 0)
(-0.194783 -0.0557008 0)
(-0.182643 -0.0551436 0)
(-0.170626 -0.054387 0)
(-0.158774 -0.0534335 0)
(-0.147127 -0.0522867 0)
(-0.135724 -0.0509515 0)
(-0.124604 -0.0494335 0)
(-0.113805 -0.04774 0)
(-0.103361 -0.0458789 0)
(-0.093308 -0.0438598 0)
(-0.0836763 -0.041693 0)
(-0.0744956 -0.0393903 0)
(-0.0657929 -0.0369646 0)
(-0.0575924 -0.0344301 0)
(-0.0499149 -0.0318021 0)