/*--------------------------------*- C++ -*----------------------------------*\
  =========                 |
  \\      /  F ield         | OpenFOAM: The Open Source CFD Toolbox
   \\    /   O peration     | Website:  https://openfoam.org
    \\  /    A nd           | Version:  9
     \\/     M anipulation  |
\*---------------------------------------------------------------------------*/
FoamFile
{
    format      ascii;
    class       volScalarField;
    location    "0.9";
    object      p;
}
// * * * * * * * * * * * * * * * * * * * * * * * * * * * * * * * * * * * * * //

dimensions      [0 2 -2 0 0 0 0];

internalField   nonuniform List<scalar> 
16384
(
1.10769e-05
0.00120544
0.000301316
-0.0032664
-0.00930024
-0.0174941
-0.0274968
-0.0389485
-0.0515108
-0.0648785
-0.0787811
-0.0929816
-0.107274
-0.121478
-0.135441
-0.14903
-0.162131
-0.174649
-0.186503
-0.197625
-0.207957
-0.217453
-0.226073
-0.233786
-0.240565
-0.24639
-0.251244
-0.255115
-0.257992
-0.259868
-0.260736
-0.260591
-0.259432
-0.257254
-0.254058
-0.249841
-0.244603
-0.238346
-0.231069
-0.222775
-0.213467
-0.203149
-0.191824
-0.179498
-0.16618
-0.151878
-0.136604
-0.120371
-0.103194
-0.085092
-0.0660852
-0.0461978
-0.0254567
-0.00389244
0.0184611
0.0415665
0.0653825
0.089864
0.114962
0.140624
0.166792
0.193407
0.220403
0.247712
0.275262
0.302978
0.330781
0.35859
0.38632
0.413885
0.441196
0.468162
0.494693
0.520697
0.546081
0.570753
0.594622
0.617599
0.639596
0.660528
0.680312
0.698871
0.716132
0.732024
0.746486
0.75946
0.770894
0.780746
0.788979
0.795566
0.800485
0.803727
0.805289
0.805178
0.80341
0.80001
0.795016
0.78847
0.780427
0.770952
0.760117
0.748004
0.734706
0.720321
0.704958
0.688734
0.671773
0.654207
0.636176
0.617825
0.599308
0.580784
0.562419
0.544387
0.526864
0.510034
0.494087
0.479214
0.465614
0.453485
0.443023
0.434415
0.427828
0.423382
0.42111
0.420889
0.422348
0.424469
-0.00116765
2.10156e-05
-0.00101442
-0.00436313
-0.00974699
-0.0169595
-0.0257535
-0.0358524
-0.0469822
-0.0588863
-0.0713295
-0.0841006
-0.0970117
-0.109896
-0.122609
-0.135024
-0.14703
-0.158533
-0.169452
-0.179719
-0.189276
-0.198072
-0.206066
-0.213225
-0.219519
-0.224926
-0.229426
-0.233004
-0.235648
-0.237347
-0.238093
-0.23788
-0.236704
-0.23456
-0.231445
-0.227359
-0.222299
-0.216266
-0.209261
-0.201284
-0.192339
-0.182429
-0.171558
-0.159733
-0.146961
-0.13325
-0.118614
-0.103064
-0.0866161
-0.0692885
-0.0511017
-0.0320789
-0.0122468
0.00836509
0.0297237
0.0517927
0.0745323
0.097899
0.121846
0.146322
0.171272
0.196639
0.222361
0.248373
0.274606
0.300988
0.327445
0.353899
0.38027
0.406477
0.432435
0.458058
0.483262
0.507959
0.532062
0.555485
0.578142
0.599948
0.620822
0.640683
0.659455
0.677066
0.693445
0.708531
0.722262
0.734587
0.745459
0.754837
0.762688
0.768988
0.773719
0.776871
0.778445
0.778446
0.776893
0.773811
0.769234
0.763206
0.755779
0.747015
0.736985
0.725766
0.713446
0.700121
0.685893
0.670873
0.655179
0.638937
0.622277
0.605337
0.588262
0.571201
0.554307
0.537743
0.521671
0.506258
0.491676
0.478097
0.465693
0.454632
0.445075
0.437168
0.431032
0.426742
0.424289
0.423564
0.424462
0.426584
-0.000261329
0.00105942
2.04783e-05
-0.00318731
-0.00818512
-0.0147909
-0.0228041
-0.0319943
-0.0421307
-0.0529924
-0.064373
-0.0760836
-0.0879531
-0.0998283
-0.111573
-0.123068
-0.134207
-0.144901
-0.155069
-0.164643
-0.173567
-0.181789
-0.189268
-0.195968
-0.201859
-0.206917
-0.211121
-0.214454
-0.216902
-0.218454
-0.219099
-0.218831
-0.217644
-0.215532
-0.212493
-0.208523
-0.203621
-0.197786
-0.191019
-0.183321
-0.174693
-0.165139
-0.154664
-0.143273
-0.130973
-0.117774
-0.103687
-0.0887254
-0.0729034
-0.056239
-0.0387523
-0.0204661
-0.00140632
0.0183982
0.0389156
0.0601105
0.0819445
0.104375
0.127358
0.150843
0.174779
0.199108
0.223773
0.248711
0.273855
0.299137
0.324485
0.349826
0.375083
0.400177
0.425029
0.449557
0.47368
0.497314
0.520376
0.542785
0.564459
0.585317
0.605282
0.624279
0.642234
0.659078
0.674748
0.689181
0.702323
0.714125
0.724541
0.733536
0.741077
0.747143
0.751717
0.754791
0.756366
0.75645
0.75506
0.752221
0.747968
0.742342
0.735395
0.727186
0.717784
0.707263
0.695708
0.68321
0.669867
0.655787
0.641081
0.625869
0.610275
0.594429
0.57847
0.562536
0.546774
0.531332
0.516363
0.502022
0.488463
0.475844
0.464317
0.454032
0.445125
0.437718
0.431915
0.427779
0.425309
0.424449
0.425355
0.428043
0.00331392
0.0044187
0.00322392
1.3015e-06
-0.00484327
-0.0111301
-0.0186783
-0.0272852
-0.036749
-0.046876
-0.0574835
-0.0684019
-0.0794763
-0.0905663
-0.101546
-0.112303
-0.12274
-0.132768
-0.142313
-0.151309
-0.159699
-0.167435
-0.174473
-0.180779
-0.186323
-0.19108
-0.195027
-0.198148
-0.200427
-0.201852
-0.202413
-0.202101
-0.200909
-0.198833
-0.195867
-0.192008
-0.187255
-0.181605
-0.175059
-0.167618
-0.159284
-0.150058
-0.139946
-0.128952
-0.117084
-0.104351
-0.090763
-0.0763332
-0.061076
-0.0450085
-0.0281501
-0.0105231
0.00784747
0.0269338
0.0467048
0.0671265
0.0881617
0.10977
0.131907
0.154526
0.177576
0.201003
0.224751
0.248759
0.272963
0.297298
0.321694
0.346081
0.370385
0.394531
0.418441
0.442038
0.465244
0.487978
0.510161
0.531714
0.55256
0.572621
0.591822
0.610093
0.627362
0.643565
0.658639
0.672527
0.685175
0.696537
0.706571
0.715242
0.722521
0.728386
0.732823
0.735826
0.737394
0.737537
0.736272
0.733624
0.729626
0.72432
0.717755
0.70999
0.70109
0.691128
0.680185
0.668349
0.655715
0.642386
0.628469
0.614078
0.599332
0.584355
0.569278
0.554233
0.539357
0.524791
0.510676
0.497156
0.484376
0.472477
0.4616
0.451879
0.443439
0.43639
0.430829
0.426827
0.424406
0.423565
0.424636
0.42785
0.00938703
0.00983678
0.00823014
0.00481167
-6.0831e-05
-0.00621537
-0.0134867
-0.021696
-0.0306666
-0.0402283
-0.0502196
-0.0604896
-0.0708989
-0.0813202
-0.0916384
-0.10175
-0.111564
-0.120998
-0.129981
-0.13845
-0.146352
-0.153639
-0.16027
-0.166211
-0.171432
-0.175907
-0.179615
-0.182538
-0.18466
-0.185969
-0.186454
-0.186106
-0.184917
-0.18288
-0.179993
-0.176249
-0.171647
-0.166185
-0.159863
-0.15268
-0.144639
-0.135741
-0.125989
-0.11539
-0.103949
-0.0916757
-0.0785796
-0.0646727
-0.0499691
-0.0344852
-0.0182397
-0.001254
0.0164478
0.0348389
0.0538893
0.0735664
0.0938342
0.114654
0.135982
0.157775
0.179983
0.202554
0.225433
0.248563
0.271881
0.295325
0.318828
0.342322
0.365735
0.388996
0.41203
0.434762
0.457117
0.479017
0.500387
0.521151
0.541233
0.56056
0.579059
0.596662
0.613302
0.628916
0.643444
0.656831
0.669026
0.679985
0.689668
0.69804
0.705076
0.710754
0.715061
0.717991
0.719546
0.719735
0.718574
0.716089
0.712312
0.707284
0.701053
0.693675
0.685215
0.675742
0.665335
0.65408
0.642068
0.629396
0.616169
0.602494
0.588487
0.574266
0.559952
0.545674
0.53156
0.517741
0.504351
0.491524
0.479393
0.468088
0.457739
0.44847
0.440394
0.433618
0.428234
0.424322
0.421923
0.421078
0.422211
0.425648
0.0176786
0.0171255
0.0148717
0.0110779
0.00600416
-0.000190697
-0.00735616
-0.015336
-0.0239762
-0.0331276
-0.0426484
-0.0524048
-0.0622728
-0.0721378
-0.0818958
-0.0914527
-0.100724
-0.109635
-0.118119
-0.126118
-0.13358
-0.14046
-0.146721
-0.152327
-0.157251
-0.161468
-0.164957
-0.167699
-0.16968
-0.170886
-0.171305
-0.17093
-0.169751
-0.167761
-0.164957
-0.161333
-0.156886
-0.151615
-0.145517
-0.138593
-0.130844
-0.122271
-0.112877
-0.102668
-0.091648
-0.0798263
-0.067212
-0.0538164
-0.0396527
-0.0247365
-0.00908556
0.00727956
0.0243359
0.0420576
0.0604162
0.0793802
0.098915
0.118983
0.139544
0.160554
0.181965
0.203729
0.225791
0.248096
0.270586
0.293198
0.315869
0.338532
0.361119
0.383561
0.405785
0.42772
0.449292
0.470428
0.491053
0.511094
0.530478
0.549135
0.566995
0.583991
0.600059
0.615138
0.62917
0.642102
0.653886
0.664478
0.67384
0.68194
0.688753
0.694257
0.698442
0.701302
0.702838
0.703059
0.701984
0.699635
0.696045
0.691254
0.685308
0.678264
0.670181
0.66113
0.651186
0.640431
0.628953
0.616846
0.604211
0.59115
0.577775
0.564196
0.550532
0.536902
0.523428
0.510234
0.497445
0.485185
0.473579
0.462749
0.452813
0.443885
0.436074
0.42948
0.424197
0.420308
0.417867
0.416938
0.417977
0.421329
0.0278636
0.0260572
0.0229634
0.0186328
0.0131992
0.00680559
-0.000411243
-0.00831646
-0.0167768
-0.0256628
-0.0348503
-0.0442219
-0.0536679
-0.0630866
-0.0723847
-0.0814775
-0.0902886
-0.0987498
-0.1068
-0.114386
-0.121459
-0.127979
-0.133908
-0.139216
-0.143874
-0.14786
-0.151152
-0.153733
-0.155589
-0.156707
-0.157074
-0.156682
-0.155522
-0.153587
-0.150872
-0.147372
-0.143084
-0.138005
-0.132133
-0.125468
-0.118009
-0.109757
-0.100716
-0.0908896
-0.0802826
-0.0689024
-0.0567577
-0.0438588
-0.0302183
-0.0158507
-0.00077295
0.0149957
0.0314333
0.0485153
0.0662144
0.0845005
0.103341
0.122699
0.142535
0.162809
0.183474
0.204483
0.225784
0.247323
0.269044
0.290887
0.31279
0.33469
0.35652
0.378212
0.399698
0.420906
0.441767
0.462209
0.48216
0.501548
0.520304
0.538358
0.555644
0.572095
0.587651
0.60225
0.615839
0.628365
0.639781
0.650045
0.659121
0.666976
0.673587
0.678934
0.683005
0.685796
0.687309
0.687552
0.686542
0.684304
0.680868
0.676274
0.670567
0.663801
0.656036
0.647339
0.637782
0.627446
0.616417
0.604783
0.592642
0.580093
0.567242
0.554195
0.541065
0.527966
0.515012
0.50232
0.490009
0.478194
0.466993
0.456518
0.446881
0.438188
0.430541
0.424036
0.418766
0.414817
0.41225
0.41114
0.411926
0.414927
0.0396077
0.0363737
0.0322895
0.0272857
0.0213556
0.0146263
0.0072217
-0.000743658
-0.0091561
-0.017904
-0.02688
-0.0359819
-0.0451137
-0.054186
-0.0631163
-0.0718293
-0.0802568
-0.0883376
-0.0960168
-0.103246
-0.109981
-0.116184
-0.121822
-0.126865
-0.131288
-0.135069
-0.138189
-0.140631
-0.142381
-0.143426
-0.143754
-0.143357
-0.142227
-0.140355
-0.137737
-0.134367
-0.130242
-0.125358
-0.119714
-0.113307
-0.106137
-0.0982045
-0.0895119
-0.0800623
-0.0698603
-0.058912
-0.0472253
-0.0348098
-0.0216767
-0.00783975
0.00668537
0.0218805
0.0377248
0.0541952
0.0712657
0.0889076
0.107089
0.125776
0.144931
0.164514
0.18448
0.204784
0.225377
0.246205
0.267215
0.288349
0.309546
0.330745
0.351882
0.372891
0.393705
0.414255
0.434473
0.454288
0.473632
0.492435
0.510628
0.528144
0.544917
0.560883
0.575983
0.590158
0.603354
0.61552
0.62661
0.636584
0.645405
0.653043
0.659473
0.664678
0.668646
0.671372
0.672858
0.673113
0.672154
0.670003
0.666691
0.662258
0.656747
0.65021
0.642706
0.634299
0.625062
0.615071
0.604409
0.593163
0.581426
0.569293
0.556866
0.544248
0.531546
0.518867
0.506322
0.49402
0.482074
0.470591
0.459682
0.449453
0.440008
0.431448
0.423868
0.41736
0.412015
0.407918
0.405133
0.403737
0.404123
0.40656
0.0525962
0.0478181
0.0426307
0.0368433
0.030303
0.0231221
0.0154132
0.00727177
-0.00120705
-0.00992826
-0.0187999
-0.0277343
-0.0366483
-0.0454645
-0.0541109
-0.0625216
-0.0706368
-0.0784022
-0.0857694
-0.0926949
-0.0991399
-0.10507
-0.110456
-0.115269
-0.119489
-0.123093
-0.126065
-0.128389
-0.130051
-0.131041
-0.131346
-0.130957
-0.129867
-0.128068
-0.125555
-0.122322
-0.118365
-0.113681
-0.108266
-0.102118
-0.0952372
-0.0876222
-0.0792747
-0.0701971
-0.0603933
-0.0498683
-0.0386292
-0.0266843
-0.014044
-0.000720692
0.013271
0.0279142
0.0431894
0.0590748
0.0755459
0.0925754
0.110133
0.128187
0.1467
0.165633
0.184946
0.204593
0.224527
0.244697
0.265051
0.285531
0.306081
0.32664
0.347146
0.367534
0.387739
0.407696
0.427335
0.446589
0.465391
0.483671
0.501364
0.518402
0.534722
0.550261
0.56496
0.578761
0.591612
0.603463
0.614269
0.623989
0.632587
0.640035
0.646307
0.651387
0.655262
0.657927
0.659386
0.659645
0.658722
0.656639
0.653426
0.649121
0.643766
0.637413
0.630119
0.621947
0.612966
0.603251
0.592882
0.581944
0.570527
0.558723
0.546629
0.534344
0.52197
0.509611
0.497371
0.485355
0.473667
0.462412
0.451692
0.441607
0.432255
0.423732
0.416127
0.409528
0.404019
0.399685
0.39659
0.39481
0.394669
0.396375
0.0665415
0.0601452
0.0537734
0.0471158
0.0398728
0.0321439
0.0240324
0.0156156
0.00697171
-0.00181976
-0.0106813
-0.0195387
-0.0283213
-0.036963
-0.0454021
-0.0535819
-0.0614508
-0.068962
-0.0760732
-0.0827465
-0.088948
-0.0946475
-0.0998184
-0.104437
-0.108483
-0.111939
-0.114788
-0.117017
-0.118613
-0.119564
-0.119861
-0.119495
-0.118457
-0.116742
-0.114343
-0.111255
-0.107473
-0.102992
-0.0978104
-0.0919243
-0.0853323
-0.0780335
-0.0700284
-0.0613185
-0.0519067
-0.0417973
-0.0309959
-0.0195099
-0.00734846
0.00547718
0.0189537
0.0330656
0.0477947
0.0631206
0.0790202
0.0954678
0.112435
0.12989
0.147799
0.166125
0.184828
0.203863
0.223187
0.242748
0.262498
0.28238
0.302338
0.322315
0.342248
0.362075
0.381734
0.401157
0.42028
0.439036
0.457356
0.475176
0.492428
0.509048
0.524972
0.540139
0.55449
0.567968
0.580522
0.592102
0.602663
0.612165
0.620573
0.627858
0.633995
0.638966
0.64276
0.645372
0.646804
0.647064
0.646166
0.644134
0.640997
0.63679
0.631557
0.625347
0.618216
0.610226
0.601443
0.591941
0.581798
0.571095
0.55992
0.548363
0.536516
0.524475
0.512338
0.500204
0.488173
0.476345
0.46482
0.453695
0.443067
0.433031
0.42368
0.415102
0.407384
0.400608
0.394853
0.390198
0.386707
0.384453
0.383682
0.384531
0.0811835
0.0731247
0.0655122
0.0579187
0.0498998
0.0415442
0.032948
0.0241719
0.0152785
0.00633295
-0.00260078
-0.011461
-0.0201891
-0.0287296
-0.0370309
-0.0450452
-0.0527291
-0.0600429
-0.0669507
-0.0734204
-0.0794229
-0.0849324
-0.0899261
-0.0943838
-0.098288
-0.101623
-0.104375
-0.106531
-0.108081
-0.109013
-0.109319
-0.10899
-0.108018
-0.106398
-0.104124
-0.101188
-0.0975878
-0.0933172
-0.0883726
-0.0827507
-0.0764491
-0.0694663
-0.0618017
-0.0534561
-0.0444312
-0.0347301
-0.0243576
-0.0133196
-0.00162409
0.010719
0.0236976
0.0372977
0.0515025
0.0662931
0.0816479
0.0975428
0.113951
0.130842
0.148184
0.165941
0.184074
0.202542
0.2213
0.240302
0.259497
0.278833
0.298254
0.317703
0.33712
0.356445
0.375615
0.394565
0.413231
0.431547
0.449447
0.466865
0.483735
0.499994
0.515578
0.530426
0.544481
0.557686
0.569989
0.581342
0.591698
0.601019
0.60927
0.616419
0.622444
0.627326
0.631053
0.63362
0.635028
0.635285
0.634405
0.63241
0.629329
0.625197
0.620055
0.613952
0.606942
0.599086
0.590448
0.581102
0.571121
0.560587
0.549582
0.538196
0.526516
0.514637
0.502652
0.490656
0.478745
0.467014
0.455559
0.444473
0.433847
0.423772
0.414334
0.405618
0.397704
0.39067
0.384591
0.379537
0.375573
0.372767
0.371282
0.37118
0.0962871
0.0865434
0.077653
0.0690751
0.0602232
0.0511781
0.0420297
0.0328243
0.0236099
0.0144383
0.00536107
-0.00357214
-0.0123137
-0.0208186
-0.0290447
-0.0369531
-0.0445081
-0.0516772
-0.0584309
-0.0647426
-0.0705885
-0.0759472
-0.0807998
-0.0851299
-0.0889227
-0.0921651
-0.0948455
-0.0969528
-0.0984772
-0.0994096
-0.0997415
-0.0994653
-0.0985743
-0.0970619
-0.0949223
-0.0921496
-0.0887387
-0.0846843
-0.0799821
-0.0746281
-0.0686191
-0.0619529
-0.0546279
-0.0466439
-0.0380015
-0.0287027
-0.0187509
-0.00815097
0.00309051
0.014965
0.027462
0.0405686
0.0542698
0.068548
0.0833833
0.0987531
0.114632
0.130992
0.147801
0.165026
0.182629
0.200572
0.218809
0.237297
0.255986
0.274824
0.293759
0.312734
0.33169
0.350568
0.369306
0.38784
0.406107
0.424042
0.441578
0.458652
0.475197
0.49115
0.506448
0.521031
0.534841
0.547821
0.55992
0.571088
0.58128
0.590457
0.598582
0.605625
0.611562
0.616375
0.62005
0.622583
0.623973
0.624228
0.623361
0.621393
0.618353
0.614273
0.609196
0.603168
0.596242
0.588477
0.579937
0.570693
0.560818
0.55039
0.53949
0.528204
0.516619
0.504825
0.492912
0.480973
0.469098
0.457381
0.445912
0.43478
0.424073
0.413875
0.404269
0.395335
0.387148
0.379781
0.373304
0.367783
0.363278
0.359854
0.357587
0.356468
0.111639
0.100203
0.0900128
0.0804161
0.0706882
0.060904
0.0511492
0.0414567
0.0318612
0.0224025
0.0131203
0.00405313
-0.00476182
-0.0132894
-0.0214966
-0.0293529
-0.0368304
-0.0439034
-0.0505487
-0.0567454
-0.0624747
-0.06772
-0.0724667
-0.0767016
-0.0804132
-0.0835909
-0.0862252
-0.0883071
-0.0898281
-0.0907803
-0.0911564
-0.0909496
-0.0901535
-0.0887621
-0.0867695
-0.0841699
-0.0809574
-0.0771268
-0.072673
-0.0675914
-0.0618781
-0.0555299
-0.0485445
-0.0409204
-0.0326571
-0.0237554
-0.0142174
-0.00404657
0.0067518
0.0181707
0.0302009
0.0428312
0.0560481
0.0698356
0.0841753
0.0990461
0.114424
0.130283
0.146593
0.163322
0.180433
0.197889
0.215648
0.233666
0.251894
0.270284
0.288782
0.307334
0.325881
0.344365
0.362726
0.380899
0.398823
0.416432
0.433662
0.450446
0.466721
0.482423
0.497489
0.511859
0.525474
0.538278
0.550218
0.561245
0.571313
0.580382
0.588416
0.595384
0.60126
0.606025
0.609667
0.612178
0.613558
0.613814
0.612958
0.611011
0.607999
0.603955
0.598919
0.592938
0.586063
0.578352
0.569868
0.560678
0.550856
0.540478
0.529623
0.518373
0.506815
0.495035
0.483122
0.471163
0.459249
0.447467
0.435904
0.424647
0.41378
0.403382
0.393532
0.384306
0.375774
0.368006
0.361065
0.355012
0.349906
0.345809
0.34271
0.340525
0.127046
0.113922
0.10242
0.0917815
0.0811463
0.0705849
0.0601805
0.0499539
0.0399275
0.03013
0.0205903
0.0113365
0.00239578
-0.00620595
-0.0144445
-0.0222973
-0.0297438
-0.0367652
-0.0433444
-0.0494662
-0.055117
-0.0602848
-0.0649591
-0.0691304
-0.0727902
-0.0759308
-0.0785446
-0.0806246
-0.082164
-0.0831562
-0.0835951
-0.0834747
-0.0827893
-0.081533
-0.0797001
-0.0772846
-0.0742805
-0.070682
-0.0664835
-0.0616797
-0.0562661
-0.0502385
-0.0435935
-0.0363285
-0.028442
-0.0199332
-0.010803
-0.0010535
0.00931151
0.0202864
0.0318637
0.0440336
0.0567842
0.0701011
0.0839676
0.0983643
0.113269
0.128656
0.144498
0.160764
0.177419
0.194427
0.211748
0.229337
0.24715
0.265136
0.283245
0.301422
0.319611
0.337754
0.355789
0.373656
0.391291
0.408629
0.425606
0.442156
0.458216
0.47372
0.488607
0.502814
0.516284
0.528959
0.540787
0.551717
0.561703
0.570703
0.57868
0.585603
0.591446
0.596188
0.599815
0.60232
0.603702
0.603965
0.603122
0.601192
0.5982
0.594178
0.589167
0.583209
0.576357
0.568666
0.560199
0.551022
0.541206
0.530826
0.51996
0.508688
0.497095
0.485264
0.473281
0.461234
0.449208
0.437288
0.425559
0.414104
0.403003
0.392332
0.382168
0.372581
0.363639
0.355406
0.347941
0.341299
0.335541
0.330725
0.326753
0.32347
0.14233
0.127529
0.114714
0.103019
0.091455
0.0800881
0.0690005
0.058202
0.047704
0.0375246
0.0276829
0.0181971
0.0090851
0.000363917
-0.00795049
-0.0158433
-0.023301
-0.0303114
-0.0368636
-0.0429479
-0.0485559
-0.0536803
-0.0583145
-0.0624528
-0.0660896
-0.0692199
-0.0718384
-0.0739401
-0.0755199
-0.0765727
-0.0770935
-0.0770772
-0.0765187
-0.0754124
-0.0737526
-0.0715333
-0.0687482
-0.065391
-0.0614557
-0.0569363
-0.0518273
-0.0461237
-0.0398211
-0.0329156
-0.0254044
-0.0172855
-0.00855823
0.00077663
0.0107168
0.0212583
0.032395
0.044119
0.0564199
0.0692851
0.0826994
0.0966449
0.111101
0.126044
0.141448
0.157283
0.173517
0.190113
0.207033
0.224235
0.241673
0.259301
0.277066
0.294917
0.312796
0.330646
0.348408
0.36602
0.383418
0.400539
0.417317
0.433687
0.449584
0.464943
0.479702
0.493799
0.507173
0.519769
0.53153
0.542407
0.552352
0.561323
0.56928
0.576192
0.582031
0.586776
0.590412
0.592929
0.594326
0.594606
0.593781
0.591867
0.588891
0.584883
0.57988
0.573927
0.567074
0.559375
0.550892
0.54169
0.531838
0.521409
0.510482
0.499134
0.487449
0.475507
0.463393
0.451192
0.438988
0.426863
0.414899
0.403177
0.391774
0.380764
0.370219
0.360207
0.350793
0.342037
0.333993
0.326713
0.320257
0.314684
0.309809
0.305405
0.157328
0.140868
0.126743
0.113986
0.101478
0.0892852
0.077489
0.0660889
0.0550862
0.0444896
0.0343085
0.0245521
0.0152295
0.00634944
-0.0020801
-0.0100516
-0.0175585
-0.024595
-0.0311561
-0.0372378
-0.0428367
-0.04795
-0.052575
-0.0567096
-0.0603514
-0.0634977
-0.0661459
-0.0682928
-0.0699351
-0.0710693
-0.0716915
-0.0717976
-0.0713828
-0.070442
-0.0689696
-0.0669593
-0.0644047
-0.0612991
-0.0576357
-0.053408
-0.0486097
-0.0432347
-0.0372774
-0.0307328
-0.0235967
-0.0158657
-0.00753777
0.00138786
0.0109105
0.0210276
0.031735
0.0430262
0.0548926
0.0673233
0.0803046
0.0938205
0.107852
0.122377
0.137371
0.152805
0.168649
0.184868
0.201424
0.218277
0.235382
0.252692
0.270159
0.287728
0.305344
0.322951
0.340489
0.357897
0.37511
0.392065
0.408696
0.424938
0.440725
0.455993
0.470676
0.484713
0.498043
0.510607
0.522349
0.533219
0.543166
0.552147
0.560123
0.567059
0.572926
0.577703
0.581371
0.583922
0.585351
0.585661
0.584861
0.582969
0.580008
0.576008
0.571005
0.565042
0.558168
0.550437
0.541909
0.532648
0.522723
0.512205
0.501171
0.489699
0.477868
0.46576
0.453458
0.441044
0.428599
0.416206
0.403945
0.391892
0.380123
0.36871
0.357723
0.347228
0.337285
0.327952
0.319281
0.311317
0.304125
0.297762
0.29196
0.28642
0.17189
0.15379
0.138364
0.124543
0.111084
0.0980523
0.0855288
0.0735045
0.061971
0.0509282
0.0403767
0.0303173
0.0207505
0.0116773
0.00309823
-0.00498639
-0.0125766
-0.0196728
-0.0262761
-0.0323876
-0.0380089
-0.0431416
-0.0477869
-0.051946
-0.0556196
-0.0588078
-0.0615101
-0.0637256
-0.0654527
-0.0666894
-0.0674329
-0.06768
-0.0674265
-0.0666674
-0.0653973
-0.0636097
-0.0612979
-0.0584549
-0.0550732
-0.0511458
-0.0466651
-0.0416243
-0.0360165
-0.0298353
-0.0230752
-0.0157314
-0.00780048
0.000720035
0.00983097
0.0195316
0.0298192
0.0406893
0.0521348
0.0641466
0.0767129
0.0898191
0.103448
0.117579
0.132189
0.147251
0.162736
0.17861
0.194837
0.211377
0.228188
0.245222
0.262431
0.279762
0.297162
0.314573
0.331935
0.349187
0.366266
0.383106
0.399643
0.415809
0.431539
0.446766
0.461426
0.475454
0.488789
0.501371
0.513143
0.524051
0.534046
0.54308
0.551114
0.558111
0.564041
0.56888
0.572609
0.575218
0.576699
0.577055
0.576294
0.574431
0.571488
0.567494
0.562485
0.556502
0.549592
0.54181
0.533213
0.523866
0.513834
0.503191
0.492009
0.480368
0.468344
0.45602
0.443476
0.430793
0.418052
0.405332
0.392713
0.38027
0.368077
0.356204
0.344718
0.333683
0.323159
0.3132
0.303856
0.295168
0.287205
0.280025
0.273278
0.266594
0.185872
0.166157
0.149442
0.134562
0.120149
0.106269
0.093006
0.0803406
0.0682562
0.0567442
0.0457971
0.0354074
0.025568
0.0162723
0.0075136
-0.000714512
-0.0084186
-0.0156053
-0.0222811
-0.0284526
-0.0341258
-0.0393067
-0.0440002
-0.0482109
-0.0519424
-0.0551975
-0.0579781
-0.0602854
-0.0621195
-0.06348
-0.0643651
-0.0647724
-0.0646981
-0.0641376
-0.0630853
-0.0615349
-0.0594792
-0.0569107
-0.0538216
-0.0502038
-0.046049
-0.0413491
-0.0360959
-0.0302819
-0.0239001
-0.0169442
-0.00940921
-0.00129112
0.00741262
0.016703
0.026579
0.037038
0.0480747
0.0596817
0.071849
0.0845636
0.0978101
0.11157
0.12582
0.140537
0.155692
0.171252
0.187183
0.203445
0.219997
0.236794
0.253786
0.270923
0.28815
0.30541
0.322644
0.339789
0.356783
0.373559
0.390052
0.406194
0.421918
0.437158
0.451846
0.465917
0.479309
0.491959
0.503809
0.514804
0.524891
0.534024
0.542158
0.549256
0.555285
0.560221
0.564042
0.566734
0.568292
0.568714
0.568007
0.566185
0.563268
0.559283
0.554266
0.548257
0.541302
0.533453
0.524768
0.51531
0.505144
0.494343
0.482978
0.471128
0.458869
0.446282
0.433447
0.420445
0.407354
0.394254
0.381222
0.368333
0.35566
0.343272
0.331234
0.319609
0.308454
0.297825
0.287766
0.278318
0.269552
0.261532
0.253823
0.24599
0.199142
0.177838
0.159849
0.143915
0.128551
0.113821
0.0998096
0.0864915
0.0738411
0.0618421
0.050479
0.0397367
0.0296008
0.0200574
0.011093
0.00269453
-0.00515091
-0.0124558
-0.0192321
-0.0254912
-0.031244
-0.0365001
-0.0412684
-0.0455565
-0.0493711
-0.0527176
-0.0556003
-0.0580225
-0.059986
-0.0614918
-0.062539
-0.063126
-0.0632494
-0.0629049
-0.0620868
-0.0607887
-0.0590032
-0.0567224
-0.0539376
-0.05064
-0.0468203
-0.0424691
-0.0375771
-0.0321354
-0.0261354
-0.0195694
-0.0124308
-0.00471387
0.00358561
0.0124704
0.0219415
0.0319978
0.042636
0.0538506
0.0656331
0.0779726
0.0908551
0.104263
0.118178
0.132574
0.147425
0.1627
0.178366
0.194384
0.210713
0.227309
0.244125
0.261108
0.278204
0.295358
0.312509
0.329595
0.346551
0.363313
0.379813
0.395983
0.411753
0.427057
0.441826
0.455993
0.469493
0.482263
0.494242
0.505373
0.515601
0.524877
0.533156
0.540397
0.546566
0.551635
0.555582
0.55839
0.560051
0.560563
0.55993
0.558164
0.555284
0.551317
0.546296
0.540258
0.533251
0.525326
0.516538
0.506949
0.496626
0.485639
0.474059
0.461965
0.449432
0.436541
0.42337
0.410001
0.396512
0.382982
0.369486
0.3561
0.342895
0.32994
0.317301
0.305037
0.293207
0.281864
0.271052
0.26081
0.251215
0.242332
0.233649
0.224661
0.211574
0.188707
0.169463
0.152486
0.136174
0.120594
0.105832
0.0918538
0.0786268
0.0661271
0.054332
0.0432192
0.0327669
0.0229545
0.0137617
0.00516915
-0.00284218
-0.0102904
-0.0171926
-0.0235652
-0.029423
-0.0347798
-0.0396479
-0.0440383
-0.0479603
-0.0514222
-0.0544306
-0.0569907
-0.059106
-0.0607786
-0.0620087
-0.0627953
-0.0631354
-0.0630247
-0.0624579
-0.0614283
-0.0599281
-0.0579488
-0.0554812
-0.0525155
-0.0490412
-0.0450479
-0.0405249
-0.0354618
-0.0298486
-0.0236761
-0.0169358
-0.00962045
-0.0017239
0.00675841
0.0158293
0.0254897
0.035738
0.0465705
0.0579808
0.0699596
0.0824946
0.0955706
0.109169
0.123267
0.137839
0.152857
0.168287
0.184092
0.200232
0.216663
0.233339
0.250207
0.267215
0.284305
0.301418
0.318491
0.335459
0.352256
0.368813
0.385061
0.40093
0.416351
0.431253
0.445569
0.459231
0.472173
0.484333
0.495651
0.50607
0.515539
0.524009
0.531439
0.53779
0.543033
0.547142
0.550101
0.551897
0.552526
0.55199
0.550301
0.547475
0.543537
0.538518
0.532456
0.525395
0.517387
0.508485
0.498752
0.488253
0.477056
0.465235
0.452865
0.440024
0.42679
0.413244
0.399465
0.385533
0.371525
0.357518
0.343586
0.329801
0.316232
0.302944
0.289997
0.277448
0.265351
0.25375
0.242684
0.232232
0.222468
0.212798
0.202652
0.223048
0.198646
0.178165
0.160157
0.142907
0.126481
0.110968
0.096326
0.0825156
0.0695057
0.0572665
0.0457686
0.0349837
0.0248842
0.0154436
0.00663601
-0.0015631
-0.0091773
-0.0162288
-0.0227384
-0.0287251
-0.0342065
-0.0391983
-0.0437147
-0.0477679
-0.0513688
-0.0545261
-0.0572468
-0.0595362
-0.0613973
-0.0628314
-0.0638377
-0.0644139
-0.0645558
-0.0642581
-0.0635138
-0.0623149
-0.0606522
-0.0585157
-0.0558946
-0.0527775
-0.0491525
-0.0450076
-0.040331
-0.0351112
-0.0293371
-0.0229988
-0.0160869
-0.00859367
-0.000512538
0.00816124
0.0174304
0.0272955
0.0377546
0.0488031
0.0604337
0.0726358
0.0853959
0.0986968
0.112518
0.126835
0.14162
0.156841
0.172462
0.188445
0.204745
0.221317
0.238109
0.255068
0.272137
0.289256
0.306361
0.323387
0.340267
0.356931
0.373309
0.389329
0.40492
0.42001
0.434529
0.448406
0.461575
0.47397
0.485528
0.496191
0.505904
0.514615
0.522281
0.528861
0.534321
0.538635
0.541781
0.543747
0.544525
0.544116
0.542528
0.539776
0.535882
0.530878
0.524799
0.517688
0.509595
0.500574
0.490686
0.479996
0.468571
0.456485
0.443813
0.430633
0.417024
0.403066
0.388838
0.37442
0.359892
0.345329
0.330806
0.316396
0.302167
0.288186
0.274512
0.261205
0.248317
0.235893
0.223971
0.212638
0.201973
0.191304
0.179995
0.23345
0.207542
0.185845
0.16682
0.148641
0.131377
0.115115
0.0998093
0.0854119
0.0718854
0.0591932
0.0472992
0.0361683
0.0257666
0.0160611
0.00702035
-0.00138603
-0.00918669
-0.0164086
-0.0230769
-0.0292147
-0.0348432
-0.0399815
-0.0446468
-0.0488543
-0.0526172
-0.0559463
-0.0588505
-0.0613362
-0.0634076
-0.0650668
-0.0663135
-0.0671457
-0.0675595
-0.0675494
-0.0671083
-0.0662277
-0.0648977
-0.0631074
-0.060845
-0.0580979
-0.054853
-0.0510969
-0.0468162
-0.0419977
-0.0366288
-0.0306976
-0.0241931
-0.0171054
-0.00942598
-0.00114822
0.00773263
0.0172191
0.0273112
0.0380064
0.0492991
0.0611807
0.0736394
0.0866597
0.100223
0.114305
0.12888
0.143918
0.159383
0.175238
0.19144
0.207942
0.224694
0.241643
0.258732
0.275899
0.293081
0.310212
0.327224
0.344045
0.360604
0.376827
0.392642
0.407974
0.42275
0.4369
0.450351
0.463036
0.47489
0.485852
0.495862
0.504868
0.512821
0.519679
0.525404
0.529967
0.533344
0.535519
0.536482
0.536232
0.534774
0.532121
0.528294
0.523321
0.517237
0.510084
0.50191
0.492768
0.482719
0.471827
0.46016
0.447791
0.434795
0.42125
0.407236
0.392832
0.378119
0.363179
0.348089
0.332929
0.317773
0.302695
0.287763
0.273047
0.258606
0.244501
0.230786
0.217505
0.204699
0.192461
0.180875
0.169194
0.156717
0.242668
0.215284
0.192393
0.172368
0.153273
0.135178
0.118174
0.102207
0.0872216
0.0731749
0.0600237
0.0477251
0.0362377
0.0255211
0.0155364
0.0062464
-0.00238452
-0.01039
-0.0178016
-0.0246487
-0.0309583
-0.0367551
-0.0420617
-0.0468982
-0.0512825
-0.05523
-0.0587537
-0.0618638
-0.064568
-0.0668717
-0.0687773
-0.0702854
-0.0713942
-0.0720999
-0.0723969
-0.0722777
-0.0717333
-0.0707532
-0.0693253
-0.067437
-0.0650742
-0.0622227
-0.0588674
-0.0549936
-0.0505863
-0.045631
-0.0401141
-0.0340225
-0.0273444
-0.0200693
-0.0121886
-0.0036953
0.00541501
0.0151445
0.0254925
0.0364555
0.0480268
0.0601964
0.0729504
0.0862714
0.100138
0.114525
0.129403
0.144738
0.160493
0.176626
0.193091
0.209839
0.226815
0.243962
0.261219
0.278522
0.295804
0.312995
0.330023
0.346814
0.363294
0.379387
0.395017
0.410108
0.424586
0.438377
0.451411
0.463619
0.474936
0.485301
0.494657
0.502953
0.510141
0.516183
0.521044
0.524699
0.527127
0.528316
0.528262
0.526968
0.524443
0.520708
0.515788
0.509717
0.502534
0.494287
0.485029
0.474818
0.463719
0.4518
0.439133
0.425794
0.411862
0.397416
0.382537
0.367308
0.35181
0.336122
0.320326
0.304497
0.28871
0.273036
0.257543
0.242297
0.227357
0.212779
0.19861
0.184891
0.171723
0.159197
0.14649
0.132835
0.250599
0.221768
0.197706
0.176698
0.156702
0.137787
0.120048
0.103423
0.0878521
0.0732843
0.0596705
0.0469612
0.0351088
0.0240669
0.0137908
0.00423774
-0.00463299
-0.0128598
-0.0204787
-0.0275231
-0.0340239
-0.0400094
-0.0455052
-0.0505345
-0.0551176
-0.0592721
-0.0630126
-0.0663509
-0.069296
-0.0718538
-0.0740278
-0.0758188
-0.0772253
-0.0782436
-0.0788679
-0.0790904
-0.0789013
-0.0782893
-0.0772414
-0.0757437
-0.0737811
-0.0713377
-0.0683971
-0.0649428
-0.0609582
-0.0564269
-0.0513332
-0.0456621
-0.0393999
-0.0325339
-0.0250532
-0.016949
-0.00821467
0.00115413
0.0111588
0.021798
0.0330668
0.044957
0.0574567
0.0705501
0.0842173
0.0984344
0.113173
0.128402
0.144083
0.160176
0.176635
0.193411
0.21045
0.227695
0.245083
0.26255
0.280028
0.297446
0.31473
0.331806
0.348595
0.365021
0.381005
0.396468
0.411334
0.425525
0.438967
0.45159
0.463323
0.474103
0.483869
0.492565
0.500142
0.506555
0.511769
0.515752
0.518481
0.519942
0.520126
0.519034
0.516674
0.513062
0.508222
0.502185
0.49499
0.486684
0.477317
0.466948
0.455641
0.443464
0.430489
0.416794
0.402455
0.387555
0.372177
0.356402
0.340314
0.323995
0.307526
0.290987