/*--------------------------------*- C++ -*----------------------------------*\
  =========                 |
  \\      /  F ield         | OpenFOAM: The Open Source CFD Toolbox
   \\    /   O peration     | Website:  https://openfoam.org
    \\  /    A nd           | Version:  9
     \\/     M anipulation  |
\*---------------------------------------------------------------------------*/
FoamFile
{
    format      ascii;
    class       surfaceScalarField;
    location    "0.9";
    object      phi;
}
// * * * * * * * * * * * * * * * * * * * * * * * * * * * * * * * * * * * * * //

dimensions      [0 3 -1 0 0 0 0];

internalField   nonuniform List<scalar> 
32512
(
2.74507e-10
-2.76958e-10
1.10218e-09
-8.27623e-10
2.13154e-09
-1.0291e-09
3.08564e-09
-9.54106e-10
3.79289e-09
-7.07385e-10
4.1498e-09
-3.56967e-10
4.09692e-09
5.29186e-11
3.60402e-09
4.92929e-10
2.66029e-09
9.43737e-10
1.26777e-09
1.39254e-09
-5.62947e-10
1.83074e-09
-2.81558e-09
2.25265e-09
-5.47007e-09
2.65449e-09
-8.50395e-09
3.03386e-09
-1.18933e-08
3.38933e-09
-1.56135e-08
3.72019e-09
-1.96398e-08
4.02625e-09
-2.39475e-08
4.30771e-09
-2.85125e-08
4.56501e-09
-3.33112e-08
4.79882e-09
-3.83212e-08
5.00993e-09
-4.35204e-08
5.19922e-09
-4.8888e-08
5.36762e-09
-5.44041e-08
5.51606e-09
-6.00496e-08
5.64546e-09
-6.58063e-08
5.75671e-09
-7.1657e-08
5.85069e-09
-7.75852e-08
5.9282e-09
-8.35752e-08
5.98998e-09
-8.96119e-08
6.03669e-09
-9.56809e-08
6.06894e-09
-1.01768e-07
6.08727e-09
-1.0786e-07
6.09215e-09
-1.13944e-07
6.08397e-09
-1.20007e-07
6.06305e-09
-1.26037e-07
6.02963e-09
-1.32021e-07
5.98392e-09
-1.37947e-07
5.92607e-09
-1.43803e-07
5.85618e-09
-1.49578e-07
5.7743e-09
-1.55258e-07
5.68044e-09
-1.60833e-07
5.57458e-09
-1.66289e-07
5.45667e-09
-1.71616e-07
5.32665e-09
-1.768e-07
5.18446e-09
-1.8183e-07
5.03004e-09
-1.86694e-07
4.86332e-09
-1.91378e-07
4.68424e-09
-1.95871e-07
4.49276e-09
-2.0016e-07
4.28888e-09
-2.04232e-07
4.07262e-09
-2.08076e-07
3.84403e-09
-2.1168e-07
3.60323e-09
-2.1503e-07
3.35035e-09
-2.18116e-07
3.08561e-09
-2.20925e-07
2.80927e-09
-2.23447e-07
2.52167e-09
-2.2567e-07
2.22318e-09
-2.27584e-07
1.91427e-09
-2.2918e-07
1.59548e-09
-2.30447e-07
1.26742e-09
-2.31378e-07
9.3077e-10
-2.31964e-07
5.86299e-10
-2.32199e-07
2.34847e-10
-2.32076e-07
-1.22667e-10
-2.31591e-07
-4.85252e-10
-2.30739e-07
-8.51841e-10
-2.29518e-07
-1.2213e-09
-2.27926e-07
-1.59242e-09
-2.25962e-07
-1.96393e-09
-2.23627e-07
-2.33451e-09
-2.20924e-07
-2.70277e-09
-2.17857e-07
-3.0673e-09
-2.1443e-07
-3.42661e-09
-2.10651e-07
-3.77922e-09
-2.06528e-07
-4.12359e-09
-2.02069e-07
-4.45819e-09
-1.97288e-07
-4.78147e-09
-1.92196e-07
-5.09189e-09
-1.86808e-07
-5.38792e-09
-1.8114e-07
-5.66806e-09
-1.75209e-07
-5.93084e-09
-1.69035e-07
-6.17484e-09
-1.62636e-07
-6.39869e-09
-1.56035e-07
-6.60109e-09
-1.49254e-07
-6.78082e-09
-1.42317e-07
-6.93674e-09
-1.35249e-07
-7.06782e-09
-1.28076e-07
-7.17314e-09
-1.20824e-07
-7.25187e-09
-1.13521e-07
-7.30332e-09
-1.06194e-07
-7.32695e-09
-9.88719e-08
-7.32232e-09
-9.15828e-08
-7.28917e-09
-8.43554e-08
-7.22736e-09
-7.72186e-08
-7.1369e-09
-7.02006e-08
-7.01796e-09
-6.33297e-08
-6.87089e-09
-5.66336e-08
-6.69616e-09
-5.01392e-08
-6.49443e-09
-4.38727e-08
-6.26648e-09
-3.78594e-08
-6.01328e-09
-3.21234e-08
-5.73593e-09
-2.66878e-08
-5.43568e-09
-2.15739e-08
-5.11394e-09
-1.68016e-08
-4.77228e-09
-1.23892e-08
-4.41243e-09
-8.35287e-09
-4.03627e-09
-4.707e-09
-3.64584e-09
-1.46359e-09
-3.24339e-09
1.36773e-09
-2.83134e-09
3.77994e-09
-2.4123e-09
5.76903e-09
-1.98915e-09
7.33425e-09
-1.56517e-09
8.47843e-09
-1.14408e-09
9.20849e-09
-7.3001e-10
9.53622e-09
-3.2773e-10
9.47913e-09
5.70719e-11
9.06159e-09
4.17469e-10
8.31643e-09
7.44987e-10
7.28735e-09
1.02892e-09
6.03221e-09
1.25519e-09
4.62753e-09
1.40491e-09
3.17441e-09
1.45322e-09
1.8056e-09
1.36867e-09
6.93382e-10
1.11218e-09
4.90716e-11
6.44717e-10
4.96505e-11
8.27551e-10
-1.10446e-09
2.46213e-09
-2.46264e-09
4.29486e-09
-2.86213e-09
5.84524e-09
-2.50455e-09
6.75712e-09
-1.61918e-09
6.78533e-09
-3.85005e-10
5.77189e-09
1.06654e-09
3.62391e-09
2.64098e-09
2.963e-10
4.27127e-09
-4.22132e-09
5.91003e-09
-9.91442e-09
7.52378e-09
-1.67508e-08
9.089e-09
-2.46857e-08
1.05894e-08
-3.36657e-08
1.20139e-08
-4.36319e-08
1.33555e-08
-5.45217e-08
1.46099e-08
-6.62706e-08
1.57751e-08
-7.88136e-08
1.68507e-08
-9.20861e-08
1.78375e-08
-1.06024e-07
1.8737e-08
-1.20566e-07
1.95517e-08
-1.35651e-07
2.02841e-08
-1.5122e-07
2.09372e-08
-1.67218e-07
2.15142e-08
-1.83591e-07
2.20181e-08
-2.00287e-07
2.24522e-08
-2.17255e-07
2.28193e-08
-2.34449e-07
2.31223e-08
-2.51823e-07
2.33638e-08
-2.69333e-07
2.35464e-08
-2.86936e-07
2.36721e-08
-3.04592e-07
2.37429e-08
-3.2226e-07
2.37606e-08
-3.39903e-07
2.37265e-08
-3.57482e-07
2.3642e-08
-3.7496e-07
2.3508e-08
-3.92302e-07
2.33253e-08
-4.0947e-07
2.30945e-08
-4.2643e-07
2.2816e-08
-4.43146e-07
2.24901e-08
-4.59582e-07
2.21169e-08
-4.75704e-07
2.16963e-08
-4.91476e-07
2.12284e-08
-5.06862e-07
2.0713e-08
-5.21828e-07
2.015e-08
-5.36337e-07
1.95392e-08
-5.50354e-07
1.88805e-08
-5.63844e-07
1.81737e-08
-5.7677e-07
1.74189e-08
-5.89097e-07
1.66162e-08
-6.0079e-07
1.57657e-08
-6.11814e-07
1.48677e-08
-6.22133e-07
1.39229e-08
-6.31715e-07
1.29319e-08
-6.40525e-07
1.18956e-08
-6.48531e-07
1.08151e-08
-6.55701e-07
9.69173e-09
-6.62005e-07
8.5272e-09
-6.67414e-07
7.32333e-09
-6.71901e-07
6.08226e-09
-6.7544e-07
4.80641e-09
-6.78007e-07
3.49849e-09
-6.79583e-07
2.16148e-09
-6.80146e-07
7.9867e-10
-6.79683e-07
-5.86383e-10
-6.78178e-07
-1.98983e-09
-6.75622e-07
-3.40756e-09
-6.72009e-07
-4.83519e-09
-6.67333e-07
-6.26811e-09
-6.61595e-07
-7.70144e-09
-6.548e-07
-9.13013e-09
-6.46954e-07
-1.05489e-08
-6.38069e-07
-1.19523e-08
-6.2816e-07
-1.33349e-08
-6.17249e-07
-1.46908e-08
-6.05358e-07
-1.60143e-08
-5.92517e-07
-1.72996e-08
-5.78757e-07
-1.85408e-08
-5.64117e-07
-1.97321e-08
-5.48637e-07
-2.08679e-08
-5.32363e-07
-2.19423e-08
-5.15344e-07
-2.29499e-08
-4.97634e-07
-2.38853e-08
-4.79289e-07
-2.47434e-08
-4.60371e-07
-2.55193e-08
-4.40943e-07
-2.62085e-08
-4.21073e-07
-2.68066e-08
-4.00831e-07
-2.73099e-08
-3.8029e-07
-2.77148e-08
-3.59523e-07
-2.80184e-08
-3.38609e-07
-2.8218e-08
-3.17624e-07
-2.83115e-08
-2.96649e-07
-2.82976e-08
-2.75763e-07
-2.8175e-08
-2.55047e-07
-2.79435e-08
-2.34581e-07
-2.7603e-08
-2.14445e-07
-2.71543e-08
-1.94717e-07
-2.65987e-08
-1.75475e-07
-2.59381e-08
-1.56794e-07
-2.5175e-08
-1.38749e-07
-2.43124e-08
-1.21408e-07
-2.33542e-08
-1.04839e-07
-2.23044e-08
-8.91067e-08
-2.11681e-08
-7.42699e-08
-1.99507e-08
-6.0384e-08
-1.86583e-08
-4.74989e-08
-1.72976e-08
-3.56593e-08
-1.58759e-08
-2.4904e-08
-1.44012e-08
-1.5265e-08
-1.28823e-08
-6.76755e-09
-1.13287e-08
5.71108e-10
-9.7509e-09
6.74216e-09
-8.16032e-09
1.17464e-08
-6.56962e-09
1.55954e-08
-4.99312e-09
1.83124e-08
-3.44705e-09
1.99347e-08
-1.95002e-09
2.05156e-08
-5.23703e-10
2.01272e-08
8.0606e-10
1.88643e-08
2.00814e-09
1.68485e-08
3.04465e-09
1.42346e-08
3.86874e-09
1.12172e-08
4.42203e-09
8.03736e-09
4.63307e-09
4.98654e-09
4.41943e-09
2.40276e-09
3.69543e-09
6.42208e-10
2.40449e-09
6.9217e-10
1.03378e-09
-2.13798e-09
2.87219e-09
-4.30129e-09
4.72132e-09
-4.71153e-09
5.99302e-09
-3.77632e-09
6.23903e-09
-1.86515e-09
5.13429e-09
7.19769e-10
2.45693e-09
3.74395e-09
-1.93256e-09
7.03051e-09
-8.10933e-09
1.04481e-08
-1.60991e-08
1.38998e-08
-2.58904e-08
1.7315e-08
-3.74436e-08
2.06422e-08
-5.06989e-08
2.38446e-08
-6.55816e-08
2.68966e-08
-8.20069e-08
2.97808e-08
-9.98829e-08
3.24859e-08
-1.19114e-07
3.5006e-08
-1.39601e-07
3.73384e-08
-1.61247e-07
3.94833e-08
-1.83953e-07
4.14431e-08
-2.07623e-07
4.32215e-08
-2.32162e-07
4.48234e-08
-2.57479e-07
4.62543e-08
-2.83486e-07
4.75202e-08
-3.10095e-07
4.86273e-08
-3.37224e-07
4.95817e-08
-3.64794e-07
5.03895e-08
-3.92728e-07
5.10564e-08
-4.20952e-07
5.15878e-08
-4.49395e-07
5.19887e-08
-4.77986e-07
5.22638e-08
-5.06661e-07
5.2417e-08
-5.35352e-07
5.24521e-08
-5.63998e-07
5.2372e-08
-5.92535e-07
5.21794e-08
-6.20904e-07
5.18765e-08
-6.49043e-07
5.14651e-08
-6.76895e-07
5.09464e-08
-7.04401e-07
5.03214e-08
-7.31501e-07
4.95908e-08
-7.58139e-07
4.87549e-08
-7.84257e-07
4.7814e-08
-8.09797e-07
4.6768e-08
-8.34701e-07
4.56168e-08
-8.58911e-07
4.43602e-08
-8.8237e-07
4.29981e-08
-9.0502e-07
4.15304e-08
-9.26803e-07
3.9957e-08
-9.47662e-07
3.82781e-08
-9.6754e-07
3.64941e-08
-9.8638e-07
3.46056e-08
-1.00413e-06
3.26135e-08
-1.02072e-06
3.05192e-08
-1.03611e-06
2.83244e-08
-1.05025e-06
2.60312e-08
-1.06308e-06
2.36422e-08
-1.07455e-06
2.11606e-08
-1.08461e-06
1.859e-08
-1.09322e-06
1.59346e-08
-1.10034e-06
1.31994e-08
-1.10592e-06
1.03896e-08
-1.10993e-06
7.51132e-09
-1.11234e-06
4.57114e-09
-1.11312e-06
1.5763e-09
-1.11224e-06
-1.46535e-09
-1.10969e-06
-4.5454e-09
-1.10544e-06
-7.65483e-09
-1.09949e-06
-1.07841e-08
-1.09184e-06
-1.39231e-08
-1.08248e-06
-1.70613e-08
-1.07142e-06
-2.01876e-08
-1.05868e-06
-2.32907e-08
-1.04427e-06
-2.63588e-08
-1.02823e-06
-2.93798e-08
-1.01057e-06
-3.23414e-08
-9.91358e-07
-3.52311e-08
-9.70621e-07
-3.80364e-08
-9.48417e-07
-4.07447e-08
-9.24806e-07
-4.33434e-08
-8.99853e-07
-4.58202e-08
-8.73633e-07
-4.81629e-08
-8.46223e-07
-5.03596e-08
-8.17709e-07
-5.23989e-08
-7.88183e-07
-5.42697e-08
-7.57741e-07
-5.59616e-08
-7.26484e-07
-5.74648e-08
-6.94521e-07
-5.87703e-08
-6.61961e-07
-5.98696e-08
-6.2892e-07
-6.07554e-08
-5.95517e-07
-6.14213e-08
-5.61874e-07
-6.18618e-08
-5.28113e-07
-6.20725e-08
-4.9436e-07
-6.205e-08
-4.60743e-07
-6.17925e-08
-4.27388e-07
-6.12988e-08
-3.94421e-07
-6.05693e-08
-3.6197e-07
-5.96057e-08
-3.30158e-07
-5.84107e-08
-2.99107e-07
-5.69887e-08
-2.68937e-07
-5.5345e-08
-2.39764e-07
-5.34864e-08
-2.11697e-07
-5.14209e-08
-1.84843e-07
-4.91581e-08
-1.59303e-07
-4.67086e-08
-1.35169e-07
-4.40844e-08
-1.12528e-07
-4.12989e-08
-9.14592e-08
-3.83668e-08
-7.20308e-08
-3.53044e-08
-5.43029e-08
-3.21291e-08
-3.83249e-08
-2.88603e-08
-2.41346e-08
-2.5519e-08
-1.17571e-08
-2.21283e-08
-1.20376e-09
-1.87135e-08
7.52913e-09
-1.53025e-08
1.44625e-08
-1.19266e-08
1.96363e-08
-8.62088e-09
2.31118e-08
-5.4256e-09
2.49748e-08
-2.3869e-09
2.53395e-08
4.41248e-10
2.43527e-08
2.9951e-09
2.21988e-08
5.19881e-09
1.91056e-08
6.96199e-09
1.53502e-08
8.17724e-09
1.12638e-08
8.71953e-09
7.23249e-09
8.45123e-09
3.69114e-09
7.23722e-09
1.1078e-09
4.98738e-09
1.79998e-09
9.64845e-10
-3.10286e-09
2.52906e-09
-5.86553e-09
3.80724e-09
-5.9898e-09
4.15232e-09
-4.12136e-09
3.07136e-09
-7.84102e-10
1.99475e-10
3.59167e-09
-4.72006e-09
8.66344e-09
-1.18548e-08
1.41652e-08
-2.13e-08
1.98932e-08
-3.30929e-08
2.56928e-08
-4.72256e-08
3.14476e-08
-6.36546e-08
3.70712e-08
-8.23101e-08
4.25001e-08
-1.03102e-07
4.76886e-08
-1.25926e-07
5.26048e-08
-1.50668e-07
5.72276e-08
-1.77206e-07
6.1544e-08
-2.05415e-07
6.55476e-08
-2.35169e-07
6.92368e-08
-2.66339e-07
7.26138e-08
-2.98801e-07
7.56833e-08
-3.3243e-07
7.84524e-08
-3.67105e-07
8.09293e-08
-4.02708e-07
8.31231e-08
-4.39124e-07
8.50434e-08
-4.76243e-07
8.67e-08
-5.13956e-07
8.81025e-08
-5.52159e-07
8.92602e-08
-5.90754e-07
9.01818e-08
-6.29641e-07
9.08757e-08
-6.68726e-07
9.13493e-08
-7.07919e-07
9.16094e-08
-7.47129e-07
9.1662e-08
-7.86269e-07
9.15123e-08
-8.25254e-07
9.11647e-08
-8.64001e-07
9.06229e-08
-9.02426e-07
8.989e-08
-9.40448e-07
8.89683e-08
-9.77986e-07
8.78596e-08
-1.01496e-06
8.65651e-08
-1.05129e-06
8.50857e-08
-1.0869e-06
8.34218e-08
-1.1217e-06
8.15735e-08
-1.15563e-06
7.95411e-08
-1.18859e-06
7.73244e-08
-1.22052e-06
7.49233e-08
-1.25133e-06
7.2338e-08
-1.28094e-06
6.95687e-08
-1.30928e-06
6.6616e-08
-1.33626e-06
6.34808e-08
-1.36182e-06
6.01645e-08
-1.38588e-06
5.6669e-08
-1.40835e-06
5.29969e-08
-1.42918e-06
4.91514e-08
-1.44829e-06
4.51365e-08
-1.4656e-06
4.0957e-08
-1.48106e-06
3.66186e-08
-1.4946e-06
3.21278e-08
-1.50615e-06
2.74922e-08
-1.51568e-06
2.27202e-08
-1.52311e-06
1.78216e-08
-1.5284e-06
1.28067e-08
-1.53152e-06
7.68714e-09
-1.53242e-06
2.47562e-09
-1.53107e-06
-2.81426e-09
-1.52745e-06
-8.16787e-09
-1.52153e-06
-1.35696e-08
-1.51331e-06
-1.90029e-08
-1.50279e-06
-2.44504e-08
-1.48995e-06
-2.98939e-08
-1.47483e-06
-3.53144e-08
-1.45743e-06
-4.06922e-08
-1.43778e-06
-4.60072e-08
-1.41592e-06
-5.12387e-08
-1.39189e-06
-5.63654e-08
-1.36576e-06
-6.13662e-08
-1.33758e-06
-6.62196e-08
-1.30742e-06
-7.09039e-08
-1.27536e-06
-7.53978e-08
-1.2415e-06
-7.96802e-08
-1.20593e-06
-8.37303e-08
-1.16877e-06
-8.75279e-08
-1.13011e-06
-9.10534e-08
-1.09009e-06
-9.4288e-08
-1.04884e-06
-9.72141e-08
-1.00649e-06
-9.98149e-08
-9.63187e-07
-1.02075e-07
-9.19076e-07
-1.0398e-07
-8.74313e-07
-1.05518e-07
-8.29057e-07
-1.06678e-07
-7.83469e-07
-1.0745e-07
-7.37714e-07
-1.07827e-07
-6.91961e-07
-1.07804e-07
-6.46377e-07
-1.07376e-07
-6.01132e-07
-1.06544e-07
-5.56395e-07
-1.05306e-07
-5.12334e-07
-1.03667e-07
-4.69115e-07
-1.0163e-07
-4.26899e-07
-9.92042e-08
-3.85846e-07
-9.6398e-08
-3.46109e-07
-9.32235e-08
-3.07836e-07
-8.96945e-08
-2.71166e-07
-8.58274e-08
-2.36234e-07
-8.16407e-08
-2.03163e-07
-7.71554e-08
-1.72068e-07
-7.23947e-08
-1.4305e-07
-6.7384e-08
-1.16203e-07
-6.21517e-08
-9.16037e-08
-5.67283e-08
-6.93169e-08
-5.11472e-08
-4.9391e-08
-4.54451e-08
-3.18575e-08
-3.96619e-08
-1.67295e-08
-3.38414e-08
-3.99989e-09
-2.80321e-08
6.36107e-09
-2.22875e-08
1.4408e-08
-1.66678e-08
2.02232e-08
-1.12407e-08
2.392e-08
-6.08374e-09
2.56465e-08
-1.2855e-09
2.55904e-08
3.05106e-09
2.39834e-08
6.80603e-09
2.11056e-08
9.83997e-09
1.72906e-08
1.19921e-08
1.29289e-08
1.30808e-08
8.47025e-09
1.29098e-08
4.42405e-09
1.12838e-08
1.36507e-09
8.0462e-09
3.16496e-09
7.23753e-10
-3.82678e-09
1.65376e-09
-6.79543e-09
1.90433e-09
-6.24033e-09
8.16285e-10
-3.03327e-09
-2.1144e-09
2.14665e-09
-7.26482e-09
8.74212e-09
-1.49047e-08
1.63033e-08
-2.52137e-08
2.44742e-08
-3.82963e-08
3.29758e-08
-5.41953e-08
4.15918e-08
-7.29037e-08
5.0156e-08
-9.43746e-08
5.85421e-08
-1.1853e-07
6.66555e-08
-1.45268e-07
7.44265e-08
-1.74469e-07
8.18055e-08
-2.05999e-07
8.87582e-08
-2.39718e-07
9.52627e-08
-2.75477e-07
1.01307e-07
-3.13126e-07
1.06886e-07
-3.52512e-07
1.12e-07
-3.93484e-07
1.16656e-07
-4.35893e-07
1.20861e-07
-4.79591e-07
1.24627e-07
-5.24433e-07
1.27965e-07
-5.70278e-07
1.30889e-07
-6.16991e-07
1.33413e-07
-6.64438e-07
1.3555e-07
-7.1249e-07
1.37312e-07
-7.61023e-07
1.38714e-07
-8.09913e-07
1.39766e-07
-8.59043e-07
1.4048e-07
-9.08299e-07
1.40865e-07
-9.57566e-07
1.4093e-07
-1.00674e-06
1.40683e-07
-1.0557e-06
1.4013e-07
-1.10436e-06
1.39277e-07
-1.1526e-06
1.38129e-07
-1.20032e-06
1.36689e-07
-1.24742e-06
1.3496e-07
-1.29379e-06
1.32943e-07
-1.33935e-06
1.30642e-07
-1.38398e-06
1.28055e-07
-1.42759e-06
1.25185e-07
-1.47008e-06
1.22031e-07
-1.51135e-06
1.18594e-07
-1.5513e-06
1.14873e-07
-1.58984e-06
1.1087e-07
-1.62685e-06
1.06585e-07
-1.66226e-06
1.0202e-07
-1.69595e-06
9.71761e-08
-1.72784e-06
9.20559e-08
-1.75784e-06
8.66628e-08
-1.78584e-06
8.10012e-08
-1.81177e-06
7.50763e-08
-1.83552e-06
6.88946e-08
-1.85703e-06
6.24638e-08
-1.87621e-06
5.57928e-08
-1.89297e-06
4.8892e-08
-1.90725e-06
4.17732e-08
-1.91898e-06
3.44496e-08
-1.92809e-06
2.6936e-08
-1.93454e-06
1.92487e-08
-1.93825e-06
1.14055e-08
-1.93921e-06
3.42573e-09
-1.93735e-06
-4.66967e-09
-1.93266e-06
-1.28584e-08
-1.92511e-06
-2.11166e-08
-1.9147e-06
-2.94192e-08
-1.90141e-06
-3.77397e-08
-1.88525e-06
-4.60505e-08
-1.86624e-06
-5.43228e-08
-1.84441e-06
-6.25269e-08
-1.81978e-06
-7.06322e-08
-1.79241e-06
-7.86075e-08
-1.76236e-06
-8.6421e-08
-1.72968e-06
-9.40404e-08
-1.69447e-06
-1.01433e-07
-1.65681e-06
-1.08567e-07
-1.61679e-06
-1.15411e-07
-1.57454e-06
-1.21931e-07
-1.53018e-06
-1.28097e-07
-1.48382e-06
-1.33879e-07
-1.43563e-06
-1.39248e-07
-1.38574e-06
-1.44174e-07
-1.33433e-06
-1.48632e-07
-1.28155e-06
-1.52596e-07
-1.22758e-06
-1.56044e-07
-1.1726e-06
-1.58954e-07
-1.11681e-06
-1.61308e-07
-1.0604e-06
-1.63089e-07
-1.00357e-06
-1.64283e-07
-9.46516e-07
-1.64879e-07
-8.8945e-07
-1.6487e-07
-8.32577e-07
-1.6425e-07
-7.76105e-07
-1.63016e-07
-7.2024e-07
-1.61171e-07
-6.65189e-07
-1.58718e-07
-6.11155e-07
-1.55665e-07
-5.58336e-07
-1.52023e-07
-5.06927e-07
-1.47807e-07
-4.57116e-07
-1.43035e-07
-4.09083e-07
-1.37728e-07
-3.63e-07
-1.3191e-07
-3.1903e-07
-1.25611e-07
-2.77325e-07
-1.18861e-07
-2.38022e-07
-1.11697e-07
-2.01249e-07
-1.04157e-07
-1.67116e-07
-9.62848e-08
-1.35718e-07
-8.81264e-08
-1.07132e-07
-7.97331e-08
-8.14163e-08
-7.11606e-08
-5.86088e-08
-6.24696e-08
-3.87236e-08
-5.37266e-08
-2.1751e-08
-4.50048e-08
-7.65383e-09
-3.63847e-08
3.63451e-09
-2.79561e-08
1.22133e-08
-1.98195e-08
1.82177e-08
-1.2088e-08
2.1822e-08
-4.8899e-09
2.32445e-08
1.62844e-09
2.27508e-08
7.29972e-09
2.06582e-08
1.19328e-08
1.73391e-08
1.53113e-08
1.32253e-08
1.71944e-08
8.81287e-09
1.73219e-08
4.66996e-09
1.54268e-08
1.45642e-09
1.12597e-08
4.62135e-09
3.75853e-10
-4.20271e-09
4.1559e-10
-6.835e-09
-7.05338e-10
-5.11932e-09
-3.61834e-09
-1.20267e-10
-8.81102e-09
7.33934e-09
-1.66512e-08
1.65823e-08
-2.74043e-08
2.70564e-08
-4.12484e-08
3.83182e-08
-5.82873e-08
5.00146e-08
-7.85624e-08
6.1867e-08
-1.02064e-07
7.36573e-08
-1.28739e-07
8.52173e-08
-1.58502e-07
9.64186e-08
-1.9124e-07
1.07165e-07
-2.26821e-07
1.17386e-07
-2.65096e-07
1.27033e-07
-3.05905e-07
1.36072e-07
-3.49083e-07
1.44484e-07
-3.94457e-07
1.5226e-07
-4.41855e-07
1.59398e-07
-4.91103e-07
1.65904e-07
-5.42028e-07
1.71786e-07
-5.94459e-07
1.77058e-07
-6.48229e-07
1.81735e-07
-7.03174e-07
1.85834e-07
-7.59133e-07
1.89372e-07
-8.15951e-07
1.92367e-07
-8.73474e-07
1.94836e-07
-9.31556e-07
1.96796e-07
-9.90052e-07
1.98262e-07
-1.04882e-06
1.99248e-07
-1.10773e-06
1.99769e-07
-1.16663e-06
1.99836e-07
-1.22541e-06
1.99459e-07
-1.28393e-06
1.98648e-07
-1.34206e-06
1.97409e-07
-1.39968e-06
1.9575e-07
-1.45667e-06
1.93676e-07
-1.5129e-06
1.9119e-07
-1.56825e-06
1.88295e-07
-1.6226e-06
1.84995e-07
-1.67584e-06
1.8129e-07
-1.72783e-06
1.77182e-07
-1.77847e-06
1.72671e-07
-1.82764e-06
1.67759e-07
-1.87521e-06
1.62446e-07
-1.92108e-06
1.56734e-07
-1.96512e-06
1.50624e-07
-2.00721e-06
1.44118e-07
-2.04726e-06
1.3722e-07
-2.08513e-06
1.29933e-07
-2.12073e-06
1.22263e-07
-2.15395e-06
1.14216e-07
-2.18467e-06
1.058e-07
-2.2128e-06
9.70253e-08
-2.23824e-06
8.79025e-08
-2.26089e-06
7.84449e-08
-2.28067e-06
6.86673e-08
-2.29748e-06
5.85868e-08
-2.31126e-06
4.82222e-08
-2.32191e-06
3.75946e-08
-2.32939e-06
2.67273e-08
-2.33363e-06
1.56454e-08
-2.33458e-06
4.3763e-09
-2.3322e-06
-7.05048e-09
-2.32646e-06
-1.86035e-08
-2.31732e-06
-3.02494e-08
-2.30479e-06
-4.19527e-08
-2.28885e-06
-5.36765e-08
-2.26952e-06
-6.53821e-08
-2.24682e-06
-7.70292e-08
-2.22077e-06
-8.85764e-08
-2.19142e-06
-9.99809e-08
-2.15883e-06
-1.11199e-07
-2.12306e-06
-1.22187e-07
-2.0842e-06
-1.329e-07
-2.04234e-06
-1.43292e-07
-1.99759e-06
-1.53319e-07
-1.95006e-06
-1.62936e-07
-1.8999e-06
-1.72099e-07
-1.84723e-06
-1.80765e-07
-1.79222e-06
-1.88891e-07
-1.73503e-06
-1.96437e-07
-1.67584e-06
-2.03363e-07
-1.61484e-06
-2.09634e-07
-1.55222e-06
-2.15214e-07
-1.48819e-06
-2.20071e-07
-1.42297e-06
-2.24177e-07
-1.35677e-06
-2.27504e-07
-1.28983e-06
-2.30032e-07
-1.22237e-06
-2.3174e-07
-1.15464e-06
-2.32613e-07
-1.08687e-06
-2.32641e-07
-1.0193e-06
-2.31816e-07
-9.52182e-07
-2.30135e-07
-8.85753e-07
-2.276e-07
-8.20253e-07
-2.24218e-07
-7.55919e-07
-2.19999e-07
-6.92983e-07
-2.14959e-07
-6.31673e-07
-2.09118e-07
-5.72207e-07
-2.02501e-07
-5.14796e-07
-1.95139e-07
-4.5964e-07
-1.87065e-07
-4.0693e-07
-1.78321e-07
-3.5684e-07
-1.68951e-07
-3.09534e-07
-1.59003e-07
-2.65157e-07
-1.48534e-07
-2.23839e-07
-1.37603e-07
-1.85689e-07
-1.26276e-07
-1.50797e-07
-1.14625e-07
-1.1923e-07
-1.02728e-07
-9.10306e-08
-9.06687e-08
-6.62164e-08
-7.85409e-08
-4.47755e-08
-6.64457e-08
-2.66655e-08
-5.44946e-08
-1.1811e-08
-4.28107e-08
-9.99135e-11
-3.15306e-08
8.61905e-09
-2.08068e-08
1.45397e-08
-1.08104e-08
1.79018e-08
-1.73369e-09
1.89948e-08
6.20647e-09
1.81617e-08
1.27659e-08
1.58019e-08
1.76713e-08
1.2376e-08
2.06204e-08
8.41331e-09
2.12844e-08
4.52419e-09
1.93159e-08
1.42411e-09
1.43597e-08
6.0455e-09
-3.76002e-11
-4.16506e-09
-1.06401e-09
-5.80847e-09
-3.80748e-09
-2.37577e-09
-8.84231e-09
4.91455e-09
-1.66177e-08
1.51147e-08
-2.74746e-08
2.74393e-08
-4.166e-08
4.12418e-08
-5.93387e-08
5.59969e-08
-8.06046e-08
7.12806e-08
-1.05491e-07
8.67535e-08
-1.3398e-07
1.02147e-07
-1.66012e-07
1.17249e-07
-2.0149e-07
1.31897e-07
-2.40292e-07
1.45967e-07
-2.82272e-07
1.59366e-07
-3.27268e-07
1.72029e-07
-3.75105e-07
1.8391e-07
-4.25601e-07
1.9498e-07
-4.78566e-07
2.05225e-07
-5.33809e-07
2.1464e-07
-5.91135e-07
2.2323e-07
-6.50351e-07
2.31003e-07
-7.11268e-07
2.37975e-07
-7.73696e-07
2.44163e-07
-8.3745e-07
2.49588e-07
-9.02348e-07
2.5427e-07
-9.68213e-07
2.58232e-07
-1.03487e-06
2.61495e-07
-1.10216e-06
2.64079e-07
-1.1699e-06
2.66004e-07
-1.23794e-06
2.67288e-07
-1.30612e-06
2.67949e-07
-1.37428e-06
2.68e-07
-1.44228e-06
2.67457e-07
-1.50996e-06
2.66329e-07
-1.57718e-06
2.64628e-07
-1.64379e-06
2.62361e-07
-1.70965e-06
2.59535e-07
-1.77461e-06
2.56157e-07
-1.83855e-06
2.52229e-07
-1.90131e-06
2.47756e-07
-1.96276e-06
2.4274e-07
-2.02276e-06
2.37182e-07
-2.08117e-06
2.31085e-07
-2.13786e-06
2.24451e-07
-2.1927e-06
2.1728e-07
-2.24554e-06
2.09575e-07
-2.29625e-06
2.01339e-07
-2.34471e-06
1.92575e-07
-2.39078e-06
1.83289e-07
-2.43433e-06
1.73486e-07
-2.47524e-06
1.63173e-07
-2.51339e-06
1.52361e-07
-2.54865e-06
1.4106e-07
-2.58091e-06
1.29284e-07
-2.61005e-06
1.17048e-07
-2.63598e-06
1.0437e-07
-2.65858e-06
9.12703e-08
-2.67777e-06
7.77723e-08
-2.69345e-06
6.39014e-08
-2.70554e-06
4.96859e-08
-2.71397e-06
3.5157e-08
-2.71867e-06
2.03484e-08
-2.71959e-06
5.29688e-09
-2.71668e-06
-9.95844e-09
-2.70991e-06
-2.53756e-08
-2.69925e-06
-4.09102e-08
-2.68469e-06
-5.65154e-08
-2.66622e-06
-7.2142e-08
-2.64387e-06
-8.77388e-08
-2.61764e-06
-1.03253e-07
-2.58759e-06
-1.18629e-07
-2.55376e-06
-1.33811e-07
-2.51622e-06
-1.48742e-07
-2.47504e-06
-1.63363e-07
-2.43033e-06
-1.77614e-07
-2.38218e-06
-1.91438e-07
-2.33073e-06
-2.04775e-07
-2.2761e-06
-2.17565e-07
-2.21844e-06
-2.29752e-07
-2.15793e-06
-2.41278e-07
-2.09473e-06
-2.52087e-07
-2.02904e-06
-2.62127e-07
-1.96106e-06
-2.71347e-07
-1.891e-06
-2.79697e-07
-1.81908e-06
-2.87134e-07
-1.74553e-06
-2.93614e-07
-1.67061e-06
-2.99099e-07
-1.59456e-06
-3.03557e-07
-1.51764e-06
-3.06956e-07
-1.4401e-06
-3.09273e-07
-1.36223e-06
-3.10487e-07
-1.28429e-06
-3.10583e-07
-1.20655e-06
-3.09553e-07
-1.12929e-06
-3.07393e-07
-1.05279e-06
-3.04106e-07
-9.77304e-07
-2.99699e-07
-9.03114e-07
-2.94188e-07
-8.3048e-07
-2.87593e-07
-7.59656e-07
-2.79941e-07
-6.90892e-07
-2.71265e-07
-6.24424e-07
-2.61606e-07
-5.60481e-07
-2.51009e-07
-4.99275e-07
-2.39527e-07
-4.41007e-07
-2.27219e-07
-3.85858e-07
-2.14152e-07
-3.33995e-07
-2.00397e-07
-2.85563e-07
-1.86035e-07
-2.40686e-07
-1.71153e-07
-1.99466e-07
-1.55846e-07
-1.61978e-07
-1.40215e-07
-1.28272e-07
-1.24375e-07
-9.83671e-08
-1.08446e-07
-7.22521e-08
-9.25607e-08
-4.98818e-08
-7.68649e-08
-3.11746e-08
-6.15179e-08
-1.60102e-08
-4.66951e-08
-4.22624e-09
-3.25909e-08
4.38436e-09
-1.94209e-08
1.00761e-08
-7.42536e-09
1.31543e-08
3.12814e-09
1.39785e-08
1.19416e-08
1.2966e-08
1.86839e-08
1.05967e-08
2.29899e-08
7.42152e-09
2.44596e-08
4.07569e-09
2.26617e-08
1.30185e-09
1.71336e-08
7.34738e-09
-4.90015e-10
-3.67499e-09
-2.69984e-09
-3.59865e-09
-7.24414e-09
2.16854e-09
-1.46207e-08
1.22911e-08
-2.52237e-08
2.57176e-08
-3.93534e-08
4.1569e-08
-5.72263e-08
5.91147e-08
-7.89841e-08
7.77547e-08
-1.04703e-07
9.69992e-08
-1.34401e-07
1.16452e-07
-1.68048e-07
1.35794e-07
-2.05572e-07
1.54773e-07
-2.46867e-07
1.73191e-07
-2.91796e-07
1.90896e-07
-3.40203e-07
2.07773e-07
-3.91911e-07
2.23738e-07
-4.46734e-07
2.38732e-07
-5.04471e-07
2.52717e-07
-5.64918e-07
2.65672e-07
-6.27866e-07
2.77588e-07
-6.93104e-07
2.88468e-07
-7.60422e-07
2.98321e-07
-8.2961e-07
3.07162e-07
-9.0046e-07
3.15013e-07
-9.72769e-07
3.21896e-07
-1.04633e-06
3.27836e-07
-1.12096e-06
3.32858e-07
-1.19645e-06
3.36988e-07
-1.27263e-06
3.40251e-07
-1.34929e-06
3.4267e-07
-1.42627e-06
3.44267e-07
-1.50339e-06
3.45064e-07
-1.58046e-06
3.45077e-07
-1.65733e-06
3.44325e-07
-1.73382e-06
3.4282e-07
-1.80977e-06
3.40576e-07
-1.88501e-06
3.37603e-07
-1.95939e-06
3.33909e-07
-2.03273e-06
3.29502e-07
-2.10489e-06
3.24388e-07
-2.1757e-06
3.1857e-07
-2.24502e-06
3.12053e-07
-2.31267e-06
3.04839e-07
-2.37852e-06
2.96932e-07
-2.4424e-06
2.88333e-07
-2.50417e-06
2.79046e-07
-2.56367e-06
2.69074e-07
-2.62075e-06
2.58422e-07
-2.67527e-06
2.47094e-07
-2.72708e-06
2.35098e-07
-2.77604e-06
2.22441e-07
-2.822e-06
2.09135e-07
-2.86483e-06
1.95193e-07
-2.9044e-06
1.80628e-07
-2.94057e-06
1.65459e-07
-2.97323e-06
1.49707e-07
-3.00226e-06
1.33394e-07
-3.02753e-06
1.16548e-07
-3.04896e-06
9.91981e-08
-3.06644e-06
8.13779e-08
-3.07987e-06
6.31238e-08
-3.08919e-06
4.4476e-08
-3.09432e-06
2.54778e-08
-3.0952e-06
6.17617e-09
-3.09178e-06
-1.33786e-08
-3.08402e-06
-3.3133e-08
-3.0719e-06
-5.30303e-08
-3.05541e-06
-7.3011e-08
-3.03454e-06
-9.30123e-08
-3.00931e-06
-1.12969e-07
-2.97975e-06
-1.32815e-07
-2.9459e-06
-1.52478e-07
-2.90782e-06
-1.7189e-07
-2.86558e-06
-1.90975e-07
-2.81929e-06
-2.09662e-07
-2.76903e-06
-2.27874e-07
-2.71493e-06
-2.45538e-07
-2.65712e-06
-2.62578e-07
-2.59577e-06
-2.7892e-07
-2.53103e-06
-2.94491e-07
-2.46309e-06
-3.0922e-07
-2.39214e-06
-3.23036e-07
-2.31839e-06
-3.35873e-07
-2.24207e-06
-3.47665e-07
-2.16342e-06
-3.58353e-07
-2.08267e-06
-3.67878e-07
-2.0001e-06
-3.76188e-07
-1.91596e-06
-3.83235e-07
-1.83054e-06
-3.88977e-07
-1.74413e-06
-3.93375e-07
-1.657e-06
-3.96399e-07
-1.56946e-06
-3.98023e-07
-1.48182e-06
-3.9823e-07
-1.39436e-06
-3.97008e-07
-1.3074e-06
-3.94352e-07
-1.22124e-06
-3.90266e-07
-1.13618e-06
-3.8476e-07
-1.05252e-06
-3.77853e-07
-9.70539e-07
-3.69572e-07
-8.9053e-07
-3.5995e-07
-8.12765e-07
-3.4903e-07
-7.37509e-07
-3.36863e-07
-6.65011e-07
-3.23507e-07
-5.95509e-07
-3.09029e-07
-5.29224e-07
-2.93505e-07
-4.66358e-07
-2.77018e-07
-4.07094e-07
-2.59661e-07
-3.51594e-07
-2.41535e-07
-2.99996e-07
-2.22751e-07
-2.52413e-07
-2.03429e-07
-2.0893e-07
-1.83699e-07
-1.69602e-07
-1.63703e-07
-1.34455e-07
-1.43594e-07
-1.03477e-07
-1.23538e-07
-7.6624e-08
-1.03718e-07
-5.3811e-08
-8.43308e-08
-3.49131e-08
-6.55931e-08
-1.97613e-08
-4.77427e-08
-8.14093e-09
-3.10413e-08
2.11694e-10
-1.57779e-08
5.61131e-09
-2.27142e-09
8.42713e-09
9.12563e-09
9.0866e-09
1.80243e-08
8.08034e-09
2.39962e-08
5.9698e-09
2.65703e-08
3.39951e-09
2.5232e-08
1.11556e-09
1.94175e-08
8.46293e-09
-9.64405e-10
-2.71054e-09
-4.43296e-09
-1.30157e-10
-1.09007e-08
8.63623e-09
-2.07775e-08
2.21679e-08
-3.43907e-08
3.93308e-08
-5.19893e-08
5.91676e-08
-7.37498e-08
8.08752e-08
-9.97823e-08
1.03787e-07
-1.30138e-07
1.27355e-07
-1.64814e-07
1.51128e-07
-2.03764e-07
1.74743e-07
-2.46899e-07
1.97908e-07
-2.941e-07
2.20392e-07
-3.45217e-07
2.42013e-07
-4.00081e-07
2.62636e-07
-4.58501e-07
2.82158e-07
-5.20277e-07
3.00507e-07
-5.85194e-07
3.17635e-07
-6.53035e-07
3.33512e-07
-7.23573e-07
3.48127e-07
-7.96583e-07
3.61478e-07
-8.71838e-07
3.73576e-07
-9.49111e-07
3.84435e-07
-1.02818e-06
3.9408e-07
-1.10882e-06
4.02535e-07
-1.19081e-06
4.09829e-07
-1.27394e-06
4.1599e-07
-1.358e-06
4.21048e-07
-1.44278e-06
4.25033e-07
-1.52808e-06
4.2797e-07
-1.6137e-06
4.29888e-07
-1.69945e-06
4.30809e-07
-1.78513e-06
4.30755e-07
-1.87055e-06
4.29746e-07
-1.95553e-06
4.278e-07
-2.03988e-06
4.2493e-07
-2.12343e-06
4.21151e-07
-2.20599e-06
4.16471e-07
-2.28739e-06
4.10901e-07
-2.36745e-06
4.04448e-07
-2.446e-06
3.97117e-07
-2.52286e-06
3.88913e-07
-2.59786e-06
3.79841e-07
-2.67083e-06
3.69905e-07
-2.74161e-06
3.59107e-07
-2.81002e-06
3.47454e-07
-2.87589e-06
3.34949e-07
-2.93907e-06
3.21598e-07
-2.99938e-06
3.0741e-07
-3.05668e-06
2.92393e-07
-3.1108e-06
2.7656e-07
-3.16158e-06
2.59923e-07
-3.20889e-06
2.42499e-07
-3.25257e-06
2.24307e-07
-3.29248e-06
2.05371e-07
-3.32849e-06
1.85717e-07
-3.36047e-06
1.65374e-07
-3.3883e-06
1.44376e-07
-3.41186e-06
1.2276e-07
-3.43105e-06
1.00568e-07
-3.44577e-06
7.78468e-08
-3.45594e-06
5.4645e-08
-3.46148e-06
3.10171e-08
-3.46233e-06
7.02139e-09
-3.45843e-06
-1.72798e-08
-3.44974e-06
-4.18202e-08
-3.43624e-06
-6.65298e-08
-3.41792e-06
-9.13349e-08
-3.39477e-06
-1.16158e-07
-3.36682e-06
-1.4092e-07
-3.3341e-06
-1.65537e-07
-3.29665e-06
-1.89923e-07
-3.25455e-06
-2.13991e-07
-3.20788e-06
-2.37652e-07
-3.15672e-06
-2.60814e-07
-3.10121e-06
-2.83387e-07
-3.04147e-06
-3.05279e-07
-2.97765e-06
-3.26397e-07
-2.90992e-06
-3.46652e-07
-2.83846e-06
-3.65952e-07
-2.76347e-06
-3.84212e-07
-2.68516e-06
-4.01345e-07
-2.60376e-06
-4.17268e-07
-2.51952e-06
-4.31904e-07
-2.4327e-06
-4.45178e-07
-2.34356e-06
-4.57019e-07
-2.25238e-06
-4.67364e-07
-2.15946e-06
-4.76152e-07
-2.06511e-06
-4.83333e-07
-1.96962e-06
-4.8886e-07
-1.87332e-06
-4.92696e-07
-1.77654e-06
-4.94809e-07
-1.67959e-06
-4.95177e-07
-1.58281e-06
-4.93787e-07
-1.48653e-06
-4.90633e-07
-1.39108e-06
-4.85718e-07
-1.29678e-06
-4.79058e-07
-1.20396e-06
-4.70673e-07
-1.11294e-06
-4.60596e-07
-1.02402e-06
-4.48871e-07
-9.37498e-07
-4.35548e-07
-8.5367e-07
-4.20691e-07
-7.72806e-07
-4.04371e-07
-6.95164e-07
-3.8667e-07
-6.20987e-07
-3.67683e-07
-5.50494e-07
-3.47511e-07
-4.83886e-07
-3.26268e-07
-4.21342e-07
-3.0408e-07
-3.63011e-07
-2.81082e-07
-3.09019e-07
-2.57421e-07
-2.5946e-07
-2.33257e-07
-2.14399e-07
-2.08764e-07
-1.73864e-07
-1.84128e-07
-1.37851e-07
-1.59552e-07
-1.06314e-07
-1.35254e-07
-7.91706e-08
-1.11474e-07
-5.62935e-08
-8.84702e-08
-3.75117e-08
-6.65246e-08
-2.26069e-08
-4.59463e-08
-1.13115e-08
-2.70732e-08
-3.30659e-09
-1.02762e-08
1.78104e-09
4.03804e-09
4.38233e-09
1.5423e-08
4.9906e-09
2.33879e-08
4.1681e-09
2.73929e-08
2.55536e-09
2.68448e-08
8.84356e-10
2.10885e-08
9.34724e-09
-1.44988e-09
-1.26066e-09
-6.22284e-09
4.64275e-09
-1.46946e-08
1.7108e-08
-2.71816e-08
3.46548e-08
-4.39369e-08
5.60861e-08
-6.51505e-08
8.03812e-08
-9.09512e-08
1.06676e-07
-1.21411e-07
1.34247e-07
-1.56549e-07
1.62493e-07
-1.96339e-07
1.90917e-07
-2.4071e-07
2.19114e-07
-2.89556e-07
2.46754e-07
-3.4274e-07
2.73576e-07
-4.00099e-07
2.99372e-07
-4.61446e-07
3.23984e-07
-5.26581e-07
3.47293e-07
-5.95286e-07
3.69212e-07
-6.67335e-07
3.89684e-07
-7.42494e-07
4.08671e-07
-8.20525e-07
4.26158e-07
-9.01186e-07
4.42139e-07
-9.84235e-07