/*--------------------------------*- C++ -*----------------------------------*\
  =========                 |
  \\      /  F ield         | OpenFOAM: The Open Source CFD Toolbox
   \\    /   O peration     | Website:  https://openfoam.org
    \\  /    A nd           | Version:  9
     \\/     M anipulation  |
\*---------------------------------------------------------------------------*/
FoamFile
{
    format      ascii;
    class       volVectorField;
    location    "0.9";
    object      U;
}
// * * * * * * * * * * * * * * * * * * * * * * * * * * * * * * * * * * * * * //

dimensions      [0 1 -1 0 0 0 0];

internalField   nonuniform List<vector> 
16384
(
(1.31588e-05 -1.33154e-05 0)
(8.10852e-05 -4.45582e-05 0)
(0.000205487 -5.75942e-05 0)
(0.000338645 -5.58485e-05 0)
(0.000448889 -4.54726e-05 0)
(0.000519346 -3.03865e-05 0)
(0.000540193 -1.29141e-05 0)
(0.000505976 5.54106e-06 0)
(0.000414268 2.41371e-05 0)
(0.000264654 4.23684e-05 0)
(5.8044e-05 5.99265e-05 0)
(-0.000203771 7.66268e-05 0)
(-0.000518415 9.23621e-05 0)
(-0.000883129 0.000107075 0)
(-0.00129492 0.000120741 0)
(-0.00175065 0.000133361 0)
(-0.00224716 0.000144951 0)
(-0.00278126 0.000155537 0)
(-0.00334983 0.000165155 0)
(-0.00394981 0.000173845 0)
(-0.00457824 0.000181649 0)
(-0.00523228 0.000188612 0)
(-0.00590919 0.000194779 0)
(-0.00660635 0.000200192 0)
(-0.00732127 0.000204895 0)
(-0.00805156 0.000208925 0)
(-0.00879496 0.00021232 0)
(-0.00954932 0.000215116 0)
(-0.0103126 0.000217343 0)
(-0.0110827 0.000219029 0)
(-0.011858 0.000220198 0)
(-0.0126364 0.000220872 0)
(-0.0134163 0.000221071 0)
(-0.014196 0.000220809 0)
(-0.0149738 0.000220098 0)
(-0.0157481 0.000218947 0)
(-0.0165174 0.000217364 0)
(-0.01728 0.000215354 0)
(-0.0180344 0.000212919 0)
(-0.0187792 0.000210061 0)
(-0.0195127 0.000206778 0)
(-0.0202334 0.000203069 0)
(-0.0209397 0.000198928 0)
(-0.0216303 0.000194354 0)
(-0.0223034 0.000189341 0)
(-0.0229575 0.000183886 0)
(-0.023591 0.000177983 0)
(-0.0242025 0.000171629 0)
(-0.0247902 0.000164821 0)
(-0.0253526 0.000157555 0)
(-0.0258881 0.00014983 0)
(-0.0263952 0.000141648 0)
(-0.0268722 0.000133008 0)
(-0.0273176 0.000123916 0)
(-0.0277298 0.000114377 0)
(-0.0281075 0.000104398 0)
(-0.028449 9.39915e-05 0)
(-0.028753 8.31688e-05 0)
(-0.0290181 7.19458e-05 0)
(-0.029243 6.03411e-05 0)
(-0.0294265 4.83759e-05 0)
(-0.0295674 3.60749e-05 0)
(-0.0296647 2.34656e-05 0)
(-0.0297175 1.05785e-05 0)
(-0.0297248 -2.55295e-06 0)
(-0.0296861 -1.58922e-05 0)
(-0.0296006 -2.93998e-05 0)
(-0.029468 -4.30335e-05 0)
(-0.0292879 -5.67484e-05 0)
(-0.0290603 -7.04968e-05 0)
(-0.0287852 -8.42288e-05 0)
(-0.0284627 -9.78922e-05 0)
(-0.0280932 -0.000111433 0)
(-0.0276774 -0.000124795 0)
(-0.027216 -0.000137922 0)
(-0.02671 -0.000150756 0)
(-0.0261604 -0.000163236 0)
(-0.0255687 -0.000175305 0)
(-0.0249364 -0.000186902 0)
(-0.0242652 -0.000197969 0)
(-0.0235571 -0.000208447 0)
(-0.0228142 -0.000218282 0)
(-0.0220388 -0.000227416 0)
(-0.0212335 -0.000235798 0)
(-0.0204008 -0.000243376 0)
(-0.0195437 -0.000250103 0)
(-0.018665 -0.000255935 0)
(-0.0177679 -0.000260831 0)
(-0.0168557 -0.000264755 0)
(-0.0159317 -0.000267676 0)
(-0.0149993 -0.000269565 0)
(-0.0140621 -0.000270401 0)
(-0.0131237 -0.000270167 0)
(-0.0121877 -0.000268852 0)
(-0.0112577 -0.000266449 0)
(-0.0103375 -0.000262958 0)
(-0.00943076 -0.000258386 0)
(-0.00854102 -0.000252743 0)
(-0.00767189 -0.000246049 0)
(-0.00682688 -0.000238326 0)
(-0.00600939 -0.000229603 0)
(-0.00522273 -0.000219916 0)
(-0.00447006 -0.000209306 0)
(-0.00375439 -0.000197818 0)
(-0.00307859 -0.000185504 0)
(-0.00244529 -0.00017242 0)
(-0.00185695 -0.00015863 0)
(-0.00131577 -0.000144202 0)
(-0.000823712 -0.00012921 0)
(-0.000382476 -0.000113735 0)
(6.54919e-06 -9.78623e-05 0)
(0.000342289 -8.16843e-05 0)
(0.00062403 -6.53017e-05 0)
(0.000851454 -4.88331e-05 0)
(0.00102468 -3.24131e-05 0)
(0.00114432 -1.61917e-05 0)
(0.00121154 -3.41907e-07 0)
(0.00122819 1.49225e-05 0)
(0.00119692 2.93319e-05 0)
(0.00112132 4.25434e-05 0)
(0.00100622 5.41e-05 0)
(0.000858041 6.33531e-05 0)
(0.000685259 6.93599e-05 0)
(0.000499139 7.07767e-05 0)
(0.000314464 6.57545e-05 0)
(0.00015068 5.17882e-05 0)
(3.47648e-05 2.64972e-05 0)
(-3.62351e-06 -3.56488e-06 0)
(4.45468e-05 -8.13539e-05 0)
(0.000198152 -0.000198114 0)
(0.000433025 -0.000238939 0)
(0.000663744 -0.000219018 0)
(0.000830621 -0.000158596 0)
(0.000896788 -7.26748e-05 0)
(0.000837555 2.837e-05 0)
(0.000637376 0.000137429 0)
(0.000287836 0.000249682 0)
(-0.000214276 0.000361856 0)
(-0.000868443 0.000471721 0)
(-0.00167149 0.000577764 0)
(-0.00261834 0.000678973 0)
(-0.00370262 0.00077469 0)
(-0.00491705 0.000864514 0)
(-0.00625379 0.000948231 0)
(-0.00770467 0.00102577 0)
(-0.00926138 0.00109715 0)
(-0.0109156 0.00116247 0)
(-0.012659 0.00122188 0)
(-0.0144837 0.00127557 0)
(-0.0163816 0.00132375 0)
(-0.0183453 0.00136664 0)
(-0.0203674 0.00140447 0)
(-0.0224408 0.00143747 0)
(-0.0245587 0.00146586 0)
(-0.0267148 0.00148985 0)
(-0.0289027 0.00150964 0)
(-0.0311165 0.00152542 0)
(-0.0333504 0.00153736 0)
(-0.0355989 0.0015456 0)
(-0.0378568 0.00155028 0)
(-0.0401188 0.00155153 0)
(-0.0423799 0.00154943 0)
(-0.0446352 0.00154407 0)
(-0.0468801 0.00153551 0)
(-0.0491097 0.00152381 0)
(-0.0513195 0.001509 0)
(-0.0535048 0.00149111 0)
(-0.0556612 0.00147015 0)
(-0.0577841 0.00144613 0)
(-0.0598689 0.00141904 0)
(-0.0619112 0.00138888 0)
(-0.0639065 0.00135562 0)
(-0.0658501 0.00131927 0)
(-0.0677376 0.0012798 0)
(-0.0695645 0.00123719 0)
(-0.071326 0.00119144 0)
(-0.0730177 0.00114254 0)
(-0.0746351 0.00109048 0)
(-0.0761735 0.00103528 0)
(-0.0776285 0.000976952 0)
(-0.0789955 0.000915525 0)
(-0.0802703 0.000851038 0)
(-0.0814484 0.000783546 0)
(-0.0825256 0.000713117 0)
(-0.0834978 0.000639838 0)
(-0.0843611 0.000563808 0)
(-0.0851116 0.000485148 0)
(-0.0857458 0.000403994 0)
(-0.0862602 0.000320501 0)
(-0.0866517 0.000234847 0)
(-0.0869175 0.000147225 0)
(-0.087055 5.78491e-05 0)
(-0.0870618 -3.30464e-05 0)
(-0.0869362 -0.000125209 0)
(-0.0866766 -0.000218369 0)
(-0.0862819 -0.000312236 0)
(-0.0857514 -0.000406505 0)
(-0.0850849 -0.000500856 0)
(-0.0842826 -0.00059495 0)
(-0.0833453 -0.00068844 0)
(-0.082274 -0.000780963 0)
(-0.0810707 -0.000872148 0)
(-0.0797375 -0.000961616 0)
(-0.0782773 -0.00104898 0)
(-0.0766935 -0.00113386 0)
(-0.07499 -0.00121585 0)
(-0.0731712 -0.00129457 0)
(-0.0712421 -0.00136963 0)
(-0.0692083 -0.00144066 0)
(-0.067076 -0.00150728 0)
(-0.0648515 -0.00156913 0)
(-0.0625421 -0.00162587 0)
(-0.0601554 -0.00167718 0)
(-0.0576991 -0.00172273 0)
(-0.0551819 -0.00176226 0)
(-0.0526125 -0.00179549 0)
(-0.0500001 -0.0018222 0)
(-0.047354 -0.00184217 0)
(-0.0446839 -0.00185524 0)
(-0.0419999 -0.00186126 0)
(-0.039312 -0.00186013 0)
(-0.0366303 -0.00185179 0)
(-0.0339653 -0.00183618 0)
(-0.0313271 -0.00181334 0)
(-0.0287261 -0.00178328 0)
(-0.0261723 -0.00174611 0)
(-0.0236758 -0.00170195 0)
(-0.0212465 -0.00165095 0)
(-0.0188937 -0.00159333 0)
(-0.0166268 -0.00152932 0)
(-0.0144545 -0.00145921 0)
(-0.0123853 -0.00138331 0)
(-0.0104271 -0.00130199 0)
(-0.00858718 -0.00121564 0)
(-0.00687234 -0.0011247 0)
(-0.00528866 -0.00102966 0)
(-0.00384147 -0.000931027 0)
(-0.00253535 -0.00082938 0)
(-0.00137396 -0.000725343 0)
(-0.000360047 -0.00061959 0)
(0.000504688 -0.000512862 0)
(0.0012197 -0.000405991 0)
(0.00178575 -0.000299915 0)
(0.002205 -0.000195704 0)
(0.00248129 -9.45848e-05 0)
(0.00262032 1.99029e-06 0)
(0.00263002 9.22627e-05 0)
(0.00252097 0.000174078 0)
(0.00230685 0.000244749 0)
(0.00200517 0.000300829 0)
(0.00163814 0.00033783 0)
(0.00123354 0.000350009 0)
(0.000825094 0.000330392 0)
(0.000452478 0.000271162 0)
(0.000166526 0.000166859 0)
(2.62909e-05 3.47652e-05 0)
(5.78895e-05 -0.000205947 0)
(0.000239967 -0.000433279 0)
(0.000493451 -0.000491989 0)
(0.000711507 -0.000419611 0)
(0.000820928 -0.000253681 0)
(0.000774303 -2.45048e-05 0)
(0.000537829 0.000244956 0)
(8.88895e-05 0.000537791 0)
(-0.000585781 0.00084174 0)
(-0.00149222 0.00114798 0)
(-0.002631 0.00145019 0)
(-0.0039986 0.00174386 0)
(-0.00558845 0.00202584 0)
(-0.00739179 0.00229397 0)
(-0.00939827 0.00254682 0)
(-0.0115965 0.00278353 0)
(-0.0139744 0.00300364 0)
(-0.0165195 0.00320702 0)
(-0.0192191 0.00339378 0)
(-0.0220607 0.00356418 0)
(-0.0250318 0.0037186 0)
(-0.0281201 0.00385754 0)
(-0.0313138 0.00398152 0)
(-0.0346012 0.0040911 0)
(-0.0379713 0.00418687 0)
(-0.0414131 0.00426938 0)
(-0.0449164 0.00433919 0)
(-0.0484711 0.00439682 0)
(-0.0520675 0.00444276 0)
(-0.0556964 0.00447747 0)
(-0.0593487 0.00450136 0)
(-0.0630159 0.00451478 0)
(-0.0666893 0.00451806 0)
(-0.0703609 0.00451148 0)
(-0.0740225 0.00449526 0)
(-0.0776664 0.0044696 0)
(-0.0812849 0.00443463 0)
(-0.0848702 0.00439049 0)
(-0.088415 0.00433725 0)
(-0.0919116 0.00427495 0)
(-0.0953527 0.00420363 0)
(-0.0987309 0.0041233 0)
(-0.102039 0.00403394 0)
(-0.105269 0.00393553 0)
(-0.108414 0.00382807 0)
(-0.111467 0.00371151 0)
(-0.11442 0.00358584 0)
(-0.117265 0.00345105 0)
(-0.119996 0.00330714 0)
(-0.122605 0.00315413 0)
(-0.125085 0.00299207 0)
(-0.127428 0.00282102 0)
(-0.129628 0.0026411 0)
(-0.131677 0.00245243 0)
(-0.133568 0.00225519 0)
(-0.135295 0.00204961 0)
(-0.136852 0.00183595 0)
(-0.138231 0.0016145 0)
(-0.139428 0.00138564 0)
(-0.140436 0.00114977 0)
(-0.14125 0.00090736 0)
(-0.141865 0.000658917 0)
(-0.142277 0.000405014 0)
(-0.142482 0.000146274 0)
(-0.142476 -0.000116627 0)
(-0.142257 -0.000382957 0)
(-0.141822 -0.000651938 0)
(-0.14117 -0.00092274 0)
(-0.140299 -0.00119449 0)
(-0.13921 -0.00146626 0)
(-0.137903 -0.0017371 0)
(-0.136379 -0.00200602 0)
(-0.134641 -0.00227198 0)
(-0.132691 -0.00253393 0)
(-0.130534 -0.0027908 0)
(-0.128173 -0.0030415 0)
(-0.125614 -0.00328493 0)
(-0.122864 -0.00351999 0)
(-0.11993 -0.00374557 0)
(-0.11682 -0.0039606 0)
(-0.113542 -0.00416401 0)
(-0.110107 -0.00435476 0)
(-0.106525 -0.00453184 0)
(-0.102808 -0.00469428 0)
(-0.0989666 -0.00484116 0)
(-0.0950146 -0.00497164 0)
(-0.090965 -0.0050849 0)
(-0.086832 -0.00518021 0)
(-0.0826298 -0.00525694 0)
(-0.0783736 -0.00531449 0)
(-0.0740788 -0.00535241 0)
(-0.0697609 -0.00537029 0)
(-0.0654361 -0.00536785 0)
(-0.0611204 -0.00534489 0)
(-0.0568301 -0.00530134 0)
(-0.0525815 -0.00523723 0)
(-0.0483908 -0.00515267 0)
(-0.044274 -0.00504793 0)
(-0.040247 -0.00492337 0)
(-0.0363252 -0.00477944 0)
(-0.0325236 -0.00461675 0)
(-0.0288567 -0.00443599 0)
(-0.0253386 -0.00423798 0)
(-0.0219823 -0.00402363 0)
(-0.0188003 -0.003794 0)
(-0.0158041 -0.00355024 0)
(-0.0130043 -0.00329362 0)
(-0.0104104 -0.00302553 0)
(-0.00803071 -0.00274751 0)
(-0.00587216 -0.0024612 0)
(-0.0039404 -0.00216843 0)
(-0.00223948 -0.00187119 0)
(-0.000771787 -0.00157166 0)
(0.000462135 -0.00127227 0)
(0.00146381 -0.000975719 0)
(0.00223707 -0.000685095 0)
(0.0027883 -0.000403918 0)
(0.00312681 -0.000136278 0)
(0.00326528 0.000112991 0)
(0.00322028 0.000338104 0)
(0.00301282 0.000532076 0)
(0.0026691 0.000686412 0)
(0.0022213 0.000790768 0)
(0.00170838 0.000832806 0)
(0.0011757 0.000798687 0)
(0.000674292 0.000674678 0)
(0.000270476 0.000452516 0)
(5.14055e-05 0.000150223 0)
(5.6546e-05 -0.000340039 0)
(0.000221395 -0.000665291 0)
(0.000423392 -0.000710592 0)
(0.000547299 -0.000543309 0)
(0.00051394 -0.000220484 0)
(0.00027056 0.000211093 0)
(-0.000221471 0.000714574 0)
(-0.000988835 0.00126174 0)
(-0.00204789 0.0018313 0)
(-0.00340669 0.00240736 0)
(-0.00506676 0.00297814 0)
(-0.0070245 0.00353501 0)
(-0.00927245 0.00407173 0)
(-0.0118002 0.00458385 0)
(-0.0145951 0.00506837 0)
(-0.017643 0.0055233 0)
(-0.0209288 0.00594751 0)
(-0.0244366 0.00634048 0)
(-0.0281503 0.00670217 0)
(-0.0320534 0.00703288 0)
(-0.0361299 0.00733319 0)
(-0.0403636 0.00760387 0)
(-0.0447389 0.00784579 0)
(-0.0492404 0.00805992 0)
(-0.0538532 0.00824726 0)
(-0.0585629 0.00840882 0)
(-0.0633554 0.00854558 0)
(-0.0682174 0.00865849 0)
(-0.0731356 0.00874844 0)
(-0.0780974 0.00881627 0)
(-0.0830906 0.00886274 0)
(-0.0881033 0.00888851 0)
(-0.0931239 0.0088942 0)
(-0.0981411 0.00888031 0)
(-0.103144 0.0088473 0)
(-0.108121 0.00879552 0)
(-0.113063 0.00872527 0)
(-0.117958 0.00863677 0)
(-0.122796 0.0085302 0)
(-0.127568 0.00840567 0)
(-0.132262 0.00826326 0)
(-0.136869 0.00810298 0)
(-0.141377 0.00792486 0)
(-0.145779 0.00772888 0)
(-0.150062 0.00751503 0)
(-0.154218 0.00728328 0)
(-0.158235 0.00703363 0)
(-0.162104 0.00676609 0)
(-0.165815 0.00648069 0)
(-0.169359 0.00617751 0)
(-0.172724 0.00585666 0)
(-0.175902 0.00551832 0)
(-0.178882 0.00516272 0)
(-0.181656 0.00479015 0)
(-0.184214 0.004401 0)
(-0.186547 0.0039957 0)
(-0.188647 0.00357481 0)
(-0.190504 0.00313895 0)
(-0.192112 0.00268884 0)
(-0.193463 0.0022253 0)
(-0.194549 0.00174926 0)
(-0.195365 0.00126173 0)
(-0.195905 0.000763839 0)
(-0.196163 0.000256813 0)
(-0.196135 -0.000258022 0)
(-0.195818 -0.00077924 0)
(-0.195208 -0.00130532 0)
(-0.194304 -0.00183464 0)
(-0.193104 -0.00236551 0)
(-0.191609 -0.00289614 0)
(-0.189819 -0.00342468 0)
(-0.187736 -0.00394919 0)
(-0.185364 -0.0044677 0)
(-0.182706 -0.00497818 0)
(-0.179768 -0.00547855 0)
(-0.176556 -0.00596671 0)
(-0.173077 -0.00644056 0)
(-0.169341 -0.00689797 0)
(-0.165357 -0.00733684 0)
(-0.161135 -0.00775509 0)
(-0.156689 -0.00815067 0)
(-0.15203 -0.00852159 0)
(-0.147174 -0.00886593 0)
(-0.142135 -0.00918182 0)
(-0.136929 -0.00946753 0)
(-0.131574 -0.00972141 0)
(-0.126087 -0.00994192 0)
(-0.120488 -0.0101277 0)
(-0.114795 -0.0102775 0)
(-0.109029 -0.0103902 0)
(-0.10321 -0.0104649 0)
(-0.0973584 -0.0105009 0)
(-0.0914965 -0.0104976 0)
(-0.0856456 -0.0104547 0)
(-0.0798271 -0.010372 0)
(-0.074063 -0.0102497 0)
(-0.0683746 -0.0100879 0)
(-0.0627834 -0.00988709 0)
(-0.0573105 -0.00964809 0)
(-0.0519763 -0.00937176 0)
(-0.046801 -0.00905927 0)
(-0.0418037 -0.00871197 0)
(-0.037003 -0.00833145 0)
(-0.0324165 -0.00791953 0)
(-0.0280605 -0.00747823 0)
(-0.0239504 -0.00700983 0)
(-0.0201 -0.00651682 0)
(-0.016522 -0.00600193 0)
(-0.0132272 -0.00546816 0)
(-0.0102247 -0.00491876 0)
(-0.00752177 -0.00435729 0)
(-0.00512365 -0.00378766 0)
(-0.00303322 -0.00321415 0)
(-0.00125092 -0.0026415 0)
(0.000225544 -0.00207498 0)
(0.00140149 -0.00152051 0)
(0.00228557 -0.000984835 0)
(0.00289021 -0.000475675 0)
(0.00323199 -1.98235e-06 0)
(0.00333229 0.000425745 0)
(0.00321778 0.000795135 0)
(0.00292105 0.00109161 0)
(0.00248129 0.00129811 0)
(0.0019449 0.00139513 0)
(0.00136488 0.00136146 0)
(0.000800257 0.00117642 0)
(0.000330057 0.000825173 0)
(6.52737e-05 0.000313339 0)
(4.65991e-05 -0.00045211 0)
(0.000162147 -0.000834448 0)
(0.000258829 -0.000821162 0)
(0.000225185 -0.000510138 0)
(-1.78954e-05 2.1297e-05 0)
(-0.000525004 0.000709781 0)
(-0.00133653 0.00150451 0)
(-0.0024808 0.00236563 0)
(-0.00397556 0.00326227 0)
(-0.00582986 0.00417075 0)
(-0.00804562 0.0050731 0)
(-0.0106191 0.00595579 0)
(-0.013542 0.00680881 0)
(-0.0168028 0.00762489 0)
(-0.0203868 0.00839891 0)
(-0.024278 0.0091274 0)
(-0.0284586 0.00980819 0)
(-0.0329099 0.0104402 0)
(-0.0376128 0.0110229 0)
(-0.0425479 0.0115567 0)
(-0.0476956 0.0120423 0)
(-0.0530368 0.0124805 0)
(-0.0585522 0.0128727 0)
(-0.0642233 0.0132202 0)
(-0.0700317 0.0135245 0)
(-0.0759598 0.0137871 0)
(-0.0819902 0.0140094 0)
(-0.0881062 0.0141929 0)
(-0.0942915 0.0143389 0)
(-0.10053 0.0144487 0)
(-0.106807 0.0145235 0)
(-0.113108 0.0145643 0)
(-0.119417 0.0145721 0)
(-0.12572 0.0145477 0)
(-0.132004 0.0144917 0)
(-0.138255 0.0144048 0)
(-0.14446 0.0142874 0)
(-0.150605 0.01414 0)
(-0.156676 0.0139627 0)
(-0.162662 0.0137558 0)
(-0.168549 0.0135195 0)
(-0.174324 0.0132538 0)
(-0.179975 0.0129588 0)
(-0.185489 0.0126344 0)
(-0.190853 0.0122808 0)
(-0.196054 0.0118978 0)
(-0.20108 0.0114856 0)
(-0.205918 0.0110442 0)
(-0.210556 0.0105737 0)
(-0.214981 0.0100742 0)
(-0.219182 0.00954608 0)
(-0.223146 0.00898956 0)
(-0.22686 0.00840507 0)
(-0.230315 0.00779316 0)
(-0.233497 0.00715448 0)
(-0.236397 0.00648979 0)
(-0.239003 0.00580001 0)
(-0.241305 0.0050862 0)
(-0.243294 0.00434956 0)
(-0.244961 0.00359145 0)
(-0.246297 0.0028134 0)
(-0.247295 0.00201709 0)
(-0.247946 0.00120436 0)
(-0.248246 0.000377207 0)
(-0.248189 -0.000462193 0)
(-0.247771 -0.00131152 0)
(-0.246989 -0.00216831 0)
(-0.245839 -0.00302994 0)
(-0.244322 -0.00389366 0)
(-0.242437 -0.00475658 0)
(-0.240186 -0.0056157 0)
(-0.237571 -0.00646794 0)
(-0.234596 -0.00731008 0)
(-0.231267 -0.00813887 0)
(-0.22759 -0.00895097 0)
(-0.223573 -0.00974303 0)
(-0.219225 -0.0105116 0)
(-0.214558 -0.0112534 0)
(-0.209584 -0.011965 0)
(-0.204315 -0.0126431 0)
(-0.198767 -0.0132843 0)
(-0.192957 -0.0138856 0)
(-0.186901 -0.0144438 0)
(-0.180619 -0.014956 0)
(-0.174131 -0.0154194 0)
(-0.167456 -0.0158313 0)
(-0.160619 -0.0161894 0)
(-0.15364 -0.0164914 0)
(-0.146545 -0.0167353 0)
(-0.139358 -0.0169195 0)
(-0.132104 -0.0170424 0)
(-0.124809 -0.017103 0)
(-0.117499 -0.0171003 0)
(-0.1102 -0.0170338 0)
(-0.10294 -0.0169033 0)
(-0.0957435 -0.0167089 0)
(-0.0886384 -0.016451 0)
(-0.0816505 -0.0161304 0)
(-0.0748057 -0.0157484 0)
(-0.068129 -0.0153064 0)
(-0.061645 -0.0148062 0)
(-0.0553774 -0.0142501 0)
(-0.0493486 -0.0136406 0)
(-0.0435803 -0.0129808 0)
(-0.0380924 -0.0122738 0)
(-0.0329037 -0.0115235 0)
(-0.0280311 -0.0107338 0)
(-0.0234898 -0.00990922 0)
(-0.019293 -0.00905461 0)
(-0.0154519 -0.00817529 0)
(-0.0119751 -0.00727704 0)
(-0.00886877 -0.0063662 0)
(-0.00613636 -0.0054497 0)
(-0.0037782 -0.0045352 0)
(-0.00179137 -0.00363115 0)
(-0.000169318 -0.00274702 0)
(0.00109847 -0.00189343 0)
(0.00202689 -0.00108244 0)
(0.00263563 -0.000327842 0)
(0.00294968 0.000354538 0)
(0.00299988 0.000946401 0)
(0.0028234 0.00142665 0)
(0.00246431 0.00177122 0)
(0.00197411 0.00195315 0)
(0.00141118 0.0019434 0)
(0.000840758 0.00171272 0)
(0.000351588 0.00123566 0)
(7.04317e-05 0.000497752 0)
(3.18536e-05 -0.000525005 0)
(7.65483e-05 -0.000902957 0)
(2.82728e-05 -0.000774554 0)
(-0.000211378 -0.000264746 0)
(-0.000716468 0.000529736 0)
(-0.00154062 0.00152955 0)
(-0.00272361 0.00267036 0)
(-0.0042934 0.00390084 0)
(-0.00626764 0.0051805 0)
(-0.00865528 0.00647761 0)
(-0.011458 0.00776763 0)
(-0.0146715 0.00903172 0)
(-0.0182868 0.0102557 0)
(-0.0222908 0.011429 0)
(-0.0266677 0.0125439 0)
(-0.0313993 0.0135953 0)
(-0.0364659 0.0145797 0)
(-0.0418465 0.015495 0)
(-0.0475193 0.0163405 0)
(-0.0534623 0.017116 0)
(-0.0596531 0.0178224 0)
(-0.0660696 0.0184607 0)
(-0.0726898 0.0190326 0)
(-0.079492 0.0195397 0)
(-0.0864549 0.019984 0)
(-0.0935578 0.0203676 0)
(-0.10078 0.0206923 0)
(-0.108103 0.0209601 0)
(-0.115507 0.0211729 0)
(-0.122972 0.0213324 0)
(-0.130481 0.0214404 0)
(-0.138017 0.0214981 0)
(-0.145561 0.021507 0)
(-0.153097 0.0214682 0)
(-0.160608 0.0213826 0)
(-0.168077 0.0212512 0)
(-0.17549 0.0210747 0)
(-0.182828 0.0208534 0)
(-0.190078 0.020588 0)
(-0.197223 0.0202787 0)
(-0.204248 0.0199258 0)
(-0.211138 0.0195294 0)
(-0.217876 0.0190896 0)
(-0.224449 0.0186065 0)
(-0.23084 0.0180802 0)
(-0.237035 0.0175107 0)
(-0.243019 0.0168981 0)
(-0.248777 0.0162426 0)
(-0.254293 0.0155444 0)
(-0.259554 0.0148037 0)
(-0.264544 0.0140211 0)
(-0.26925 0.0131969 0)
(-0.273658 0.012332 0)
(-0.277753 0.0114271 0)
(-0.281523 0.0104832 0)
(-0.284954 0.00950159 0)
(-0.288035 0.00848356 0)
(-0.290753 0.00743074 0)
(-0.293098 0.00634492 0)
(-0.295058 0.00522815 0)
(-0.296623 0.00408268 0)
(-0.297786 0.002911 0)
(-0.298538 0.00171584 0)
(-0.298872 0.000500133 0)
(-0.298781 -0.000732928 0)
(-0.298262 -0.00197994 0)
(-0.29731 -0.0032373 0)
(-0.295924 -0.00450117 0)
(-0.294102 -0.00576754 0)
(-0.291844 -0.00703221 0)
(-0.289153 -0.00829083 0)
(-0.286031 -0.00953888 0)
(-0.282484 -0.0107717 0)
(-0.278518 -0.0119847 0)
(-0.274141 -0.0131728 0)
(-0.269362 -0.0143314 0)
(-0.264193 -0.0154554 0)
(-0.258646 -0.0165399 0)
(-0.252736 -0.0175802 0)
(-0.24648 -0.0185714 0)
(-0.239893 -0.0195088 0)
(-0.232997 -0.0203877 0)
(-0.22581 -0.0212038 0)
(-0.218356 -0.0219528 0)
(-0.210658 -0.0226307 0)
(-0.20274 -0.0232336 0)
(-0.194628 -0.0237582 0)
(-0.186349 -0.0242012 0)
(-0.177931 -0.0245598 0)
(-0.169403 -0.0248316 0)
(-0.160794 -0.0250143 0)
(-0.152134 -0.0251065 0)
(-0.143454 -0.0251068 0)
(-0.134784 -0.0250145 0)
(-0.126157 -0.0248292 0)
(-0.117602 -0.0245512 0)
(-0.109151 -0.0241811 0)
(-0.100834 -0.0237201 0)
(-0.0926816 -0.0231699 0)
(-0.0847227 -0.0225327 0)
(-0.0769862 -0.0218112 0)
(-0.0694995 -0.0210086 0)
(-0.062289 -0.0201288 0)
(-0.0553798 -0.019176 0)
(-0.0487952 -0.0181551 0)
(-0.0425569 -0.0170714 0)
(-0.0366848 -0.0159309 0)
(-0.0311965 -0.0147401 0)
(-0.0261074 -0.0135062 0)
(-0.0214302 -0.0122368 0)
(-0.017175 -0.0109405 0)
(-0.013349 -0.00962648 0)
(-0.00995605 -0.00830479 0)
(-0.00699656 -0.00698651 0)
(-0.00446717 -0.00568385 0)
(-0.00236042 -0.00441029 0)
(-0.000664391 -0.00318092 0)
(0.000637658 -0.00201266 0)
(0.00156771 -0.000924572 0)
(0.00215339 6.17318e-05 0)
(0.00242848 0.000921721 0)
(0.00243329 0.00162758 0)
(0.00221528 0.002148 0)
(0.00182948 0.00244828 0)
(0.00133814 0.00249087 0)
(0.000811217 0.0022366 0)
(0.00034362 0.0016469 0)
(6.9543e-05 0.000685033 0)
(1.45008e-05 -0.000548277 0)
(-2.57385e-05 -0.000844285 0)
(-0.000247143 -0.000533885 0)
(-0.000728878 0.000235817 0)
(-0.00153615 0.00135078 0)
(-0.00271931 0.00271696 0)
(-0.00431552 0.00425733 0)
(-0.00635075 0.00590966 0)
(-0.00884122 0.00762411 0)
(-0.0117948 0.00936102 0)
(-0.0152121 0.0110892 0)
(-0.0190879 0.0127843 0)
(-0.0234121 0.0144278 0)
(-0.0281703 0.0160055 0)
(-0.0333452 0.017507 0)
(-0.0389171 0.0189251 0)
(-0.0448641 0.0202548 0)
(-0.0511634 0.0214929 0)
(-0.057791 0.022638 0)
(-0.0647224 0.0236898 0)
(-0.071933 0.0246488 0)
(-0.0793978 0.0255163 0)
(-0.0870924 0.0262941 0)
(-0.0949925 0.0269844 0)
(-0.103074 0.0275894 0)
(-0.111313 0.0281116 0)
(-0.119688 0.0285536 0)
(-0.128175 0.0289179 0)
(-0.136752 0.0292067 0)
(-0.145399 0.0294225 0)
(-0.154094 0.0295672 0)
(-0.162817 0.0296428 0)
(-0.171548 0.029651 0)
(-0.180267 0.0295934 0)
(-0.188956 0.0294712 0)
(-0.197594 0.0292856 0)
(-0.206164 0.0290375 0)
(-0.214646 0.0287276 0)
(-0.223024 0.0283566 0)
(-0.231278 0.0279249 0)
(-0.239391 0.027433 0)
(-0.247344 0.0268809 0)
(-0.255122 0.026269 0)
(-0.262705 0.0255974 0)
(-0.270076 0.0248662 0)
(-0.277218 0.0240757 0)
(-0.284113 0.0232259 0)
(-0.290745 0.0223172 0)
(-0.297096 0.02135 0)
(-0.30315 0.0203246 0)
(-0.30889 0.0192419 0)
(-0.314299 0.0181024 0)
(-0.319363 0.0169074 0)
(-0.324065 0.0156579 0)
(-0.328389 0.0143554 0)
(-0.332323 0.0130016 0)
(-0.335851 0.0115985 0)
(-0.33896 0.0101483 0)
(-0.341637 0.00865354 0)
(-0.343871 0.007117 0)
(-0.345651 0.00554184 0)
(-0.346966 0.0039315 0)
(-0.347809 0.00228973 0)
(-0.34817 0.000620578 0)
(-0.348044 -0.00107159 0)
(-0.347426 -0.00278212 0)
(-0.346311 -0.00450607 0)
(-0.344697 -0.00623823 0)
(-0.342583 -0.00797312 0)
(-0.33997 -0.00970503 0)
(-0.336859 -0.011428 0)
(-0.333256 -0.013136 0)
(-0.329166 -0.0148227 0)
(-0.324596 -0.0164817 0)
(-0.319555 -0.0181064 0)
(-0.314055 -0.0196902 0)
(-0.308108 -0.0212266 0)
(-0.30173 -0.022709 0)
(-0.294936 -0.0241306 0)
(-0.287745 -0.0254851 0)
(-0.280177 -0.0267661 0)
(-0.272253 -0.0279674 0)
(-0.263998 -0.029083 0)
(-0.255437 -0.0301072 0)
(-0.246595 -0.0310346 0)
(-0.2375 -0.0318601 0)
(-0.228183 -0.032579 0)
(-0.218673 -0.033187 0)
(-0.209003 -0.0336803 0)
(-0.199204 -0.0340556 0)
(-0.18931 -0.0343101 0)
(-0.179356 -0.0344415 0)
(-0.169375 -0.0344483 0)
(-0.159403 -0.0343294 0)
(-0.149474 -0.0340844 0)
(-0.139625 -0.0337135 0)
(-0.129889 -0.0332178 0)
(-0.120301 -0.0325987 0)
(-0.110896 -0.0318586 0)
(-0.101707 -0.0310006 0)
(-0.0927657 -0.0300283 0)
(-0.0841034 -0.0289462 0)
(-0.07575 -0.0277593 0)
(-0.0677339 -0.0264737 0)
(-0.0600814 -0.0250958 0)
(-0.0528172 -0.023633 0)
(-0.0459635 -0.0220934 0)
(-0.0395403 -0.020486 0)
(-0.0335649 -0.0188203 0)
(-0.0280519 -0.0171071 0)
(-0.0230126 -0.0153577 0)
(-0.018455 -0.0135847 0)
(-0.0143838 -0.0118018 0)
(-0.0107994 -0.0100238 0)
(-0.00769831 -0.00826707 0)
(-0.00507256 -0.00654964 0)
(-0.00290927 -0.00489138 0)
(-0.00119043 -0.00331444 0)
(0.000107481 -0.00184352 0)
(0.00101392 -0.000506244 0)
(0.00156462 0.000666408 0)
(0.00180199 0.00163976 0)
(0.00177567 0.00237515 0)
(0.00154304 0.00282987 0)
(0.00116899 0.00295736 0)
(0.000726637 0.00270775 0)
(0.000313625 0.00202855 0)
(6.45652e-05 0.000861711 0)
(-4.17585e-06 -0.00051552 0)
(-0.000138267 -0.000640173 0)
(-0.000552215 -7.21708e-05 0)
(-0.00130222 0.00102419 0)
(-0.00244193 0.00252024 0)
(-0.00401655 0.00430896 0)
(-0.00605905 0.00630185 0)
(-0.008592 0.00842663 0)
(-0.011629 0.0106246 0)
(-0.0151759 0.0128486 0)
(-0.0192317 0.0150609 0)
(-0.0237896 0.0172318 0)
(-0.0288378 0.0193382 0)
(-0.0343608 0.0213623 0)
(-0.0403397 0.0232909 0)
(-0.0467529 0.0251144 0)
(-0.0535771 0.0268262 0)
(-0.0607873 0.0284221 0)
(-0.0683577 0.0298996 0)
(-0.0762617 0.0312581 0)
(-0.0844723 0.0324979 0)
(-0.0929627 0.0336203 0)
(-0.101706 0.0346273 0)
(-0.110675 0.0355213 0)
(-0.119843 0.0363051 0)
(-0.129186 0.0369816 0)
(-0.138676 0.0375538 0)
(-0.14829 0.0380248 0)
(-0.158002 0.0383974 0)
(-0.16779 0.0386745 0)
(-0.177629 0.0388586 0)
(-0.187497 0.038952 0)
(-0.19737 0.0389571 0)
(-0.207228 0.0388755 0)
(-0.217049 0.0387091 0)
(-0.22681 0.0384592 0)
(-0.236491 0.038127 0)
(-0.246072 0.0377135 0)
(-0.255531 0.0372196 0)
(-0.264848 0.0366458 0)
(-0.274004 0.0359926 0)
(-0.282977 0.0352605 0)
(-0.291748 0.0344497 0)
(-0.300297 0.0335605 0)
(-0.308604 0.0325932 0)
(-0.316651 0.0315481 0)
(-0.324417 0.0304254 0)
(-0.331883 0.0292257 0)
(-0.33903 0.0279495 0)
(-0.34584 0.0265975 0)
(-0.352293 0.0251707 0)
(-0.358372 0.0236701 0)
(-0.364059 0.0220973 0)
(-0.369337 0.0204537 0)
(-0.374189 0.0187415 0)
(-0.378598 0.0169629 0)
(-0.382549 0.0151204 0)
(-0.386028 0.0132172 0)
(-0.38902 0.0112565 0)
(-0.391513 0.00924209 0)
(-0.393494 0.00717811 0)
(-0.394953 0.00506907 0)
(-0.39588 0.00291988 0)
(-0.396266 0.000735862 0)
(-0.396105 -0.0014773 0)
(-0.395391 -0.00371354 0)
(-0.394119 -0.00596642 0)
(-0.392288 -0.00822915 0)
(-0.389896 -0.0104946 0)
(-0.386945 -0.0127555 0)
(-0.383437 -0.015004 0)
(-0.379377 -0.0172323 0)
(-0.374772 -0.0194322 0)
(-0.369629 -0.0215955 0)
(-0.36396 -0.0237136 0)
(-0.357776 -0.0257782 0)
(-0.351093 -0.0277807 0)
(-0.343927 -0.0297125 0)
(-0.336296 -0.0315652 0)
(-0.32822 -0.0333304 0)
(-0.319723 -0.035 0)
(-0.310827 -0.0365659 0)
(-0.30156 -0.0380206 0)
(-0.291948 -0.0393566 0)
(-0.282022 -0.0405669 0)
(-0.271813 -0.0416451 0)
(-0.261352 -0.0425851 0)
(-0.250674 -0.0433815 0)
(-0.239813 -0.0440293 0)
(-0.228806 -0.0445242 0)
(-0.21769 -0.0448628 0)
(-0.206502 -0.0450421 0)
(-0.195281 -0.04506 0)
(-0.184064 -0.0449153 0)
(-0.172892 -0.0446074 0)
(-0.161803 -0.0441367 0)
(-0.150835 -0.0435044 0)
(-0.140028 -0.0427126 0)
(-0.129417 -0.0417644 0)
(-0.119041 -0.0406635 0)
(-0.108935 -0.0394149 0)
(-0.0991335 -0.0380243 0)
(-0.0896695 -0.0364984 0)
(-0.0805742 -0.0348447 0)
(-0.071877 -0.0330719 0)
(-0.0636052 -0.0311894 0)
(-0.0557833 -0.0292079 0)
(-0.0484337 -0.0271388 0)
(-0.0415754 -0.0249947 0)
(-0.0352247 -0.0227893 0)
(-0.0293942 -0.0205374 0)
(-0.024093 -0.0182553 0)
(-0.0193263 -0.0159605 0)
(-0.0150952 -0.013672 0)
(-0.0113961 -0.0114106 0)
(-0.00822075 -0.00919931 0)
(-0.00555592 -0.00706301 0)
(-0.00338284 -0.00502934 0)
(-0.00167704 -0.00312882 0)
(-0.000407974 -0.0013953 0)
(0.000461269 0.000133706 0)
(0.000974347 0.00141656 0)
(0.00118216 0.0024072 0)
(0.00114339 0.00305479 0)
(0.000924414 0.00330357 0)
(0.000600032 0.00309286 0)
(0.00026761 0.00235665 0)
(5.68908e-05 0.00101806 0)
(-2.34347e-05 -0.000423031 0)
(-0.000256784 -0.000278688 0)
(-0.000876191 0.000629405 0)
(-0.00191289 0.00212418 0)
(-0.00340724 0.00406511 0)
(-0.00539788 0.00633417 0)
(-0.00791232 0.0088328 0)
(-0.0109686 0.0114797 0)
(-0.0145766 0.0142081 0)
(-0.0187395 0.0169638 0)
(-0.0234538 0.019703 0)
(-0.0287106 0.0223906 0)
(-0.0344964 0.0249992 0)
(-0.0407939 0.0275075 0)
(-0.0475824 0.0298993 0)
(-0.0548388 0.0321627 0)
(-0.062538 0.0342894 0)
(-0.0706533 0.0362737 0)
(-0.0791569 0.0381126 0)
(-0.0880203 0.0398047 0)
(-0.0972147 0.04135 0)
(-0.106711 0.0427499 0)
(-0.11648 0.0440064 0)
(-0.126493 0.0451222 0)
(-0.136721 0.0461004 0)
(-0.147136 0.0469445 0)
(-0.157711 0.047658 0)
(-0.168418 0.0482443 0)
(-0.17923 0.048707 0)
(-0.190122 0.0490492 0)
(-0.201067 0.049274 0)
(-0.212041 0.0493844 0)
(-0.223018 0.0493829 0)
(-0.233974 0.0492717 0)
(-0.244886 0.049053 0)
(-0.255729 0.0487284 0)
(-0.266481 0.0482995 0)
(-0.277117 0.0477674 0)
(-0.287617 0.0471332 0)
(-0.297956 0.0463977 0)
(-0.308112 0.0455615 0)
(-0.318064 0.0446253 0)
(-0.327788 0.0435894 0)
(-0.337264 0.0424543 0)
(-0.346469 0.0412204 0)
(-0.355382 0.0398881 0)
(-0.363982 0.0384579 0)
(-0.372246 0.0369306 0)
(-0.380155 0.0353069 0)
(-0.387687 0.0335878 0)
(-0.394822 0.0317746 0)
(-0.401541 0.0298688 0)
(-0.407824 0.0278724 0)
(-0.413652 0.0257874 0)
(-0.419006 0.0236164 0)
(-0.423869 0.0213624 0)
(-0.428224 0.0190288 0)
(-0.432056 0.0166195 0)
(-0.435348 0.0141386 0)
(-0.438088 0.0115911 0)
(-0.440261 0.00898203 0)
(-0.441857 0.00631723 0)
(-0.442864 0.0036029 0)
(-0.443275 0.000845736 0)
(-0.443081 -0.0019471 0)
(-0.442276 -0.00476796 0)
(-0.440857 -0.00760878 0)
(-0.43882 -0.0104611 0)
(-0.436166 -0.0133159 0)
(-0.432895 -0.016164 0)
(-0.42901 -0.0189959 0)
(-0.424518 -0.0218015 0)
(-0.419425 -0.0245708 0)
(-0.41374 -0.0272935 0)
(-0.407475 -0.029959 0)
(-0.400645 -0.0325568 0)
(-0.393264 -0.0350761 0)
(-0.385351 -0.0375066 0)
(-0.376926 -0.0398375 0)
(-0.368012 -0.0420585 0)
(-0.358632 -0.0441594 0)
(-0.348814 -0.0461304 0)
(-0.338586 -0.0479619 0)
(-0.327977 -0.0496448 0)
(-0.31702 -0.0511704 0)
(-0.30575 -0.0525307 0)
(-0.2942 -0.0537181 0)
(-0.282409 -0.0547259 0)
(-0.270414 -0.0555479 0)
(-0.258254 -0.0561789 0)
(-0.245969 -0.0566145 0)
(-0.233602 -0.0568511 0)
(-0.221192 -0.0568861 0)
(-0.208783 -0.0567179 0)
(-0.196417 -0.0563459 0)
(-0.184136 -0.0557705 0)
(-0.171981 -0.0549934 0)
(-0.159995 -0.054017 0)
(-0.148219 -0.0528453 0)
(-0.136693 -0.051483 0)
(-0.125456 -0.0499361 0)
(-0.114545 -0.048212 0)
(-0.103996 -0.0463188 0)
(-0.0938434 -0.0442663 0)
(-0.0841195 -0.0420649 0)
(-0.0748539 -0.0397268 0)
(-0.0660734 -0.037265 0)
(-0.0578024 -0.034694 0)
(-0.050062 -0.0320295 0)
(-0.0428698 -0.0292884 0)