/*--------------------------------*- C++ -*----------------------------------*\
  =========                 |
  \\      /  F ield         | OpenFOAM: The Open Source CFD Toolbox
   \\    /   O peration     | Website:  https://openfoam.org
    \\  /    A nd           | Version:  9
     \\/     M anipulation  |
\*---------------------------------------------------------------------------*/
FoamFile
{
    format      ascii;
    class       volScalarField;
    location    "0.5";
    object      p;
}
// * * * * * * * * * * * * * * * * * * * * * * * * * * * * * * * * * * * * * //

dimensions      [0 2 -2 0 0 0 0];

internalField   nonuniform List<scalar> 
16384
(
0.000154121
0.00145393
0.000573012
-0.00298948
-0.0090192
-0.017209
-0.0272061
-0.03865
-0.051203
-0.0645603
-0.0784519
-0.0926408
-0.106921
-0.121113
-0.135063
-0.148638
-0.161726
-0.174232
-0.186072
-0.19718
-0.207499
-0.216981
-0.225588
-0.233287
-0.240054
-0.245866
-0.250708
-0.254567
-0.257433
-0.259297
-0.260154
-0.26
-0.25883
-0.256643
-0.253437
-0.249211
-0.243965
-0.2377
-0.230416
-0.222115
-0.212801
-0.202476
-0.191145
-0.178815
-0.165493
-0.151188
-0.135911
-0.119675
-0.102497
-0.084394
-0.0653872
-0.0455003
-0.0247605
-0.00319808
0.0191531
0.0422556
0.0660681
0.0905455
0.115639
0.141296
0.167459
0.194067
0.221057
0.248359
0.275903
0.303611
0.331407
0.359208
0.386931
0.414488
0.441792
0.468751
0.495275
0.521272
0.54665
0.571316
0.59518
0.618152
0.640145
0.661074
0.680856
0.699414
0.716674
0.732567
0.747029
0.760005
0.771442
0.781298
0.789537
0.796129
0.801056
0.804306
0.805877
0.805775
0.804018
0.80063
0.795648
0.789115
0.781087
0.771626
0.760807
0.74871
0.735428
0.721059
0.705713
0.689506
0.672562
0.655012
0.636997
0.618663
0.600161
0.581653
0.563303
0.545284
0.527774
0.510956
0.495018
0.480156
0.466564
0.454442
0.443985
0.435381
0.428795
0.424351
0.42208
0.421855
0.423306
0.425418
-0.000916287
0.000289404
-0.000739908
-0.00408547
-0.00946602
-0.0166745
-0.0254628
-0.035554
-0.0466748
-0.0585692
-0.0710023
-0.0837628
-0.0966627
-0.109536
-0.122237
-0.134639
-0.146632
-0.158123
-0.16903
-0.179284
-0.188827
-0.19761
-0.205592
-0.212738
-0.21902
-0.224415
-0.228904
-0.23247
-0.235102
-0.23679
-0.237526
-0.237303
-0.236116
-0.233962
-0.230839
-0.226743
-0.221676
-0.215635
-0.208622
-0.200638
-0.191687
-0.18177
-0.170894
-0.159063
-0.146286
-0.132572
-0.117933
-0.10238
-0.0859305
-0.0686016
-0.050414
-0.0313913
-0.0115597
0.00905095
0.0304079
0.0524748
0.0752117
0.0985753
0.122518
0.14699
0.171936
0.197298
0.223015
0.249021
0.275248
0.301624
0.328074
0.354522
0.380886
0.407086
0.433038
0.458655
0.483853
0.508544
0.532642
0.55606
0.578712
0.600514
0.621385
0.641244
0.660014
0.677624
0.694004
0.709089
0.722822
0.73515
0.746024
0.755407
0.763264
0.76957
0.774307
0.777468
0.779049
0.779061
0.777518
0.774447
0.769882
0.763866
0.756453
0.747703
0.737687
0.726484
0.714179
0.700869
0.686657
0.671653
0.655975
0.639748
0.623103
0.606179
0.589119
0.572071
0.555192
0.53864
0.52258
0.507178
0.492606
0.479036
0.466639
0.455584
0.446033
0.43813
0.431996
0.427707
0.425256
0.424532
0.425428
0.427539
1.44425e-05
0.00133423
0.00029651
-0.00290936
-0.00790437
-0.0145061
-0.0225136
-0.0316968
-0.0418249
-0.0526775
-0.0640486
-0.0757491
-0.0876081
-0.0994723
-0.111206
-0.122689
-0.133817
-0.144498
-0.154654
-0.164216
-0.173127
-0.181337
-0.188803
-0.195491
-0.201371
-0.206417
-0.21061
-0.213931
-0.216368
-0.217909
-0.218544
-0.218266
-0.217068
-0.214947
-0.211899
-0.20792
-0.20301
-0.197167
-0.190393
-0.182687
-0.174052
-0.164492
-0.154011
-0.142614
-0.13031
-0.117107
-0.103017
-0.0880517
-0.0722272
-0.055561
-0.0380731
-0.0197864
-0.000726707
0.0190773
0.0395936
0.0607871
0.0826191
0.105048
0.128027
0.151509
0.175441
0.199766
0.224427
0.249359
0.274498
0.299774
0.325117
0.350452
0.375703
0.400792
0.425639
0.450161
0.474279
0.497907
0.520965
0.54337
0.565039
0.585895
0.605857
0.624852
0.642806
0.65965
0.675319
0.689754
0.702898
0.714702
0.725121
0.73412
0.741667
0.747738
0.752319
0.755401
0.756985
0.757078
0.755698
0.75287
0.748629
0.743015
0.736081
0.727886
0.718497
0.707991
0.69645
0.683967
0.67064
0.656575
0.641883
0.626686
0.611106
0.595275
0.57933
0.563409
0.54766
0.53223
0.517272
0.502941
0.489392
0.476781
0.465261
0.454981
0.446079
0.438678
0.432877
0.428741
0.42627
0.425411
0.42632
0.429002
0.00359309
0.00469428
0.00349928
0.000277904
-0.00456397
-0.0108465
-0.0183891
-0.0269893
-0.0364455
-0.0465641
-0.0571625
-0.0680714
-0.0791357
-0.0902152
-0.101184
-0.11193
-0.122355
-0.132372
-0.141906
-0.15089
-0.159268
-0.166991
-0.174018
-0.180312
-0.185845
-0.19059
-0.194526
-0.197636
-0.199904
-0.201318
-0.201868
-0.201546
-0.200345
-0.198259
-0.195284
-0.191416
-0.186655
-0.180997
-0.174444
-0.166995
-0.158654
-0.149421
-0.139303
-0.128303
-0.116431
-0.103693
-0.0901012
-0.075668
-0.0604079
-0.0443382
-0.0274782
-0.0098502
0.00852088
0.0276072
0.0473778
0.0677987
0.0888325
0.110439
0.132574
0.15519
0.178237
0.201661
0.225404
0.249408
0.273607
0.297937
0.322329
0.346711
0.37101
0.39515
0.419056
0.442649
0.465849
0.488579
0.510758
0.532307
0.55315
0.573208
0.592408
0.610676
0.627945
0.644148
0.659222
0.673111
0.685761
0.697126
0.707164
0.715839
0.723123
0.728994
0.733439
0.736449
0.738025
0.738178
0.736922
0.734285
0.730298
0.725004
0.718452
0.7107
0.701813
0.691864
0.680936
0.669114
0.656495
0.643181
0.629278
0.6149
0.600168
0.585205
0.570141
0.555109
0.540245
0.52569
0.511586
0.498076
0.485305
0.473414
0.462543
0.452828
0.444392
0.437348
0.431791
0.427791
0.425367
0.424524
0.425598
0.428808
0.00966486
0.0101104
0.00850306
0.00508586
0.000216113
-0.00593417
-0.0132
-0.0214029
-0.0303663
-0.03992
-0.0499028
-0.0601637
-0.0705634
-0.0809745
-0.0912822
-0.101383
-0.111186
-0.120609
-0.12958
-0.138039
-0.145929
-0.153204
-0.159824
-0.165753
-0.170963
-0.175427
-0.179124
-0.182036
-0.184147
-0.185446
-0.18592
-0.185562
-0.184363
-0.182317
-0.17942
-0.175668
-0.171058
-0.165588
-0.159258
-0.152068
-0.144019
-0.135114
-0.125356
-0.114751
-0.103305
-0.0910269
-0.0779264
-0.0640157
-0.0493088
-0.0338222
-0.0175746
-0.000587311
0.0171155
0.0355072
0.0545578
0.0742346
0.0945017
0.11532
0.136647
0.158438
0.180643
0.203211
0.226087
0.249213
0.272527
0.295967
0.319466
0.342955
0.366364
0.389621
0.412651
0.435379
0.457729
0.479626
0.500992
0.521753
0.541832
0.561156
0.579654
0.597256
0.613896
0.62951
0.644038
0.657427
0.669624
0.680586
0.690272
0.698649
0.70569
0.711374
0.715688
0.718626
0.720189
0.720387
0.719236
0.716761
0.712995
0.707978
0.70176
0.694395
0.685947
0.676488
0.666095
0.654854
0.642855
0.630197
0.616983
0.603322
0.589329
0.57512
0.56082
0.546554
0.532451
0.518644
0.505264
0.492446
0.480323
0.469026
0.458684
0.449419
0.441348
0.434575
0.429195
0.425287
0.422887
0.422038
0.423171
0.426605
0.0179515
0.0173949
0.0151408
0.0113488
0.00627793
8.71755e-05
-0.00707309
-0.0150468
-0.0236799
-0.0328237
-0.0423363
-0.052084
-0.0619426
-0.0717978
-0.0815456
-0.091092
-0.100353
-0.109253
-0.117726
-0.125714
-0.133164
-0.140034
-0.146283
-0.151879
-0.156792
-0.160998
-0.164476
-0.167208
-0.169178
-0.170373
-0.170782
-0.170396
-0.169207
-0.167209
-0.164395
-0.160763
-0.156308
-0.151028
-0.144923
-0.137991
-0.130234
-0.121654
-0.112254
-0.102038
-0.0910128
-0.079186
-0.066567
-0.0531671
-0.0389996
-0.0240802
-0.00842665
0.00794056
0.0249985
0.0427214
0.0610807
0.080045
0.0995797
0.119647
0.140207
0.161215
0.182625
0.204386
0.226445
0.248747
0.271234
0.293842
0.316509
0.339169
0.361752
0.384191
0.406412
0.428343
0.449912
0.471044
0.491665
0.511703
0.531086
0.549741
0.567599
0.584595
0.600662
0.615741
0.629774
0.642708
0.654495
0.66509
0.674456
0.68256
0.689378
0.694889
0.69908
0.701947
0.703492
0.703722
0.702656
0.700317
0.696738
0.691958
0.686025
0.678993
0.670923
0.661885
0.651954
0.641212
0.629747
0.617654
0.605032
0.591985
0.578622
0.565056
0.551404
0.537786
0.524323
0.511139
0.49836
0.486109
0.474511
0.463688
0.453759
0.444836
0.43703
0.430439
0.425158
0.421272
0.418832
0.417901
0.418938
0.422285
0.0281296
0.0263211
0.0232277
0.0188993
0.0134687
0.00707916
-0.000132593
-0.00803179
-0.0164854
-0.0253639
-0.0345434
-0.0439065
-0.0533433
-0.0627524
-0.0720405
-0.0811232
-0.0899242
-0.098375
-0.106415
-0.11399
-0.121052
-0.127561
-0.13348
-0.138776
-0.143424
-0.147399
-0.150681
-0.153252
-0.155097
-0.156204
-0.156561
-0.156158
-0.154988
-0.153044
-0.150321
-0.146812
-0.142516
-0.137428
-0.131548
-0.124875
-0.117408
-0.109149
-0.100101
-0.0902684
-0.0796556
-0.06827
-0.0561201
-0.0432166
-0.0295719
-0.0152007
-0.000119745
0.0156515
0.0320913
0.049175
0.0668754
0.0851624
0.104003
0.123361
0.143197
0.16347
0.184134
0.205141
0.226439
0.247976
0.269694
0.291534
0.313434
0.335331
0.357157
0.378847
0.400329
0.421535
0.442393
0.462832
0.48278
0.502166
0.52092
0.538973
0.556257
0.572708
0.588264
0.602864
0.616454
0.628982
0.6404
0.650668
0.659747
0.667607
0.674223
0.679576
0.683654
0.686453
0.687973
0.688225
0.687225
0.684996
0.681571
0.676988
0.671293
0.664539
0.656787
0.648102
0.638558
0.628235
0.617218
0.605598
0.593469
0.580934
0.568094
0.55506
0.541942
0.528854
0.51591
0.503229
0.490927
0.479122
0.467928
0.45746
0.447829
0.439142
0.431499
0.424997
0.419729
0.415782
0.413216
0.412105
0.412889
0.415885
0.0398661
0.0366313
0.032548
0.0275467
0.0216199
0.0148946
0.00749512
-0.00046424
-0.00886997
-0.0176106
-0.0265787
-0.0356721
-0.0447949
-0.0538577
-0.0627784
-0.0714816
-0.0798993
-0.0879702
-0.0956392
-0.102858
-0.109582
-0.115775
-0.121402
-0.126435
-0.130848
-0.134618
-0.137728
-0.140159
-0.141898
-0.142933
-0.143251
-0.142844
-0.141703
-0.139823
-0.137195
-0.133817
-0.129683
-0.124791
-0.119138
-0.112722
-0.105544
-0.0976047
-0.0889052
-0.079449
-0.0692409
-0.0582868
-0.0465947
-0.034174
-0.0210364
-0.00719528
0.00733344
0.0225316
0.0383787
0.0548513
0.0719237
0.089567
0.10775
0.126437
0.145593
0.165175
0.18514
0.205443
0.226034
0.24686
0.267868
0.288999
0.310193
0.33139
0.352524
0.373531
0.394342
0.41489
0.435105
0.454919
0.47426
0.493061
0.511252
0.528767
0.545539
0.561506
0.576606
0.590781
0.603978
0.616146
0.627239
0.637216
0.646041
0.653684
0.66012
0.665331
0.669306
0.672039
0.673533
0.673797
0.672846
0.670705
0.667405
0.662982
0.657482
0.650957
0.643465
0.635071
0.625846
0.615868
0.605218
0.593984
0.582259
0.57014
0.557725
0.545119
0.532428
0.51976
0.507225
0.494933
0.482996
0.471522
0.460621
0.450399
0.44096
0.432405
0.42483
0.418325
0.412982
0.408885
0.406101
0.404705
0.405089
0.407522
0.0528459
0.0480683
0.0428824
0.0370977
0.0305609
0.0233843
0.0156806
0.0075452
-0.000926848
-0.00964068
-0.0185044
-0.0274303
-0.0363355
-0.0451424
-0.0537795
-0.0621809
-0.0702865
-0.0780423
-0.0853996
-0.0923148
-0.0987494
-0.104669
-0.110044
-0.114848
-0.119057
-0.122651
-0.125613
-0.127926
-0.129578
-0.130557
-0.130852
-0.130453
-0.129353
-0.127545
-0.125023
-0.121781
-0.117815
-0.113122
-0.107698
-0.101542
-0.0946529
-0.0870302
-0.0786755
-0.0695911
-0.0597808
-0.0492497
-0.0380047
-0.0260544
-0.013409
-8.11996e-05
0.0139145
0.0285613
0.0438397
0.059728
0.0762015
0.093233
0.110792
0.128847
0.147361
0.166295
0.185607
0.205253
0.225186
0.245355
0.265706
0.286185
0.306733
0.32729
0.347793
0.368179
0.388383
0.408337
0.427974
0.447227
0.466026
0.484305
0.501996
0.519034
0.535353
0.550892
0.565592
0.579394
0.592247
0.6041
0.614908
0.624631
0.633234
0.640686
0.646964
0.65205
0.655932
0.658605
0.660071
0.660339
0.659425
0.657351
0.654149
0.649854
0.64451
0.638169
0.630887
0.622726
0.613757
0.604055
0.593698
0.582773
0.571368
0.559576
0.547494
0.535221
0.522858
0.51051
0.49828
0.486273
0.474594
0.463347
0.452635
0.442557
0.433212
0.424694
0.417093
0.410497
0.404991
0.400658
0.397563
0.395782
0.39564
0.397342
0.0667814
0.0603865
0.0540169
0.0473625
0.0401235
0.0323992
0.024293
0.0158824
0.00724549
-0.00153843
-0.010392
-0.0192409
-0.0280148
-0.0366475
-0.0450776
-0.0532484
-0.0611081
-0.0686098
-0.0757112
-0.0823743
-0.0885655
-0.0942547
-0.0994155
-0.104024
-0.108061
-0.111506
-0.114345
-0.116564
-0.118149
-0.119089
-0.119376
-0.119
-0.117953
-0.116228
-0.11382
-0.110723
-0.106931
-0.102442
-0.0972506
-0.0913557
-0.0847553
-0.0774486
-0.069436
-0.0607191
-0.0513005
-0.0411845
-0.0303768
-0.018885
-0.00671815
0.00611245
0.0195935
0.0337094
0.0484422
0.0637714
0.079674
0.0961242
0.113094
0.13055
0.148461
0.166787
0.18549
0.204525
0.223848
0.243409
0.263156
0.283037
0.302994
0.322969
0.3429
0.362727
0.382383
0.401805
0.420927
0.43968
0.457999
0.475817
0.493069
0.509688
0.525612
0.540779
0.555131
0.568611
0.581166
0.592748
0.603312
0.612818
0.62123
0.62852
0.634662
0.639639
0.64344
0.646059
0.647499
0.647766
0.646878
0.644855
0.641728
0.637532
0.63231
0.626112
0.618992
0.611014
0.602243
0.592753
0.582622
0.571931
0.560768
0.549222
0.537387
0.525358
0.513233
0.501109
0.489088
0.477269
0.465752
0.454635
0.444015
0.433986
0.424641
0.416069
0.408355
0.401582
0.39583
0.391176
0.387686
0.385431
0.384658
0.385504
0.0814123
0.0733561
0.0657467
0.0581568
0.0501423
0.0417918
0.0332013
0.0244317
0.0155455
0.00660769
-0.00231796
-0.0111699
-0.0198894
-0.0284212
-0.0367137
-0.0447192
-0.052394
-0.0596983
-0.0665964
-0.073056
-0.0790483
-0.0845477
-0.0895315
-0.0939795
-0.097874
-0.101199
-0.103941
-0.106087
-0.107625
-0.108547
-0.108842
-0.108503
-0.107523
-0.105893
-0.103609
-0.100664
-0.0970541
-0.092774
-0.08782
-0.0821891
-0.0758789
-0.0688879
-0.0612156
-0.0528625
-0.0438304
-0.0341224
-0.0237432
-0.0126989
-0.000997574
0.0113509
0.0243345
0.037939
0.052148
0.0669425
0.0823008
0.0981988
0.114609
0.131503
0.148846
0.166604
0.184738
0.203207
0.221965
0.240966
0.26016
0.279495
0.298914
0.318362
0.337779
0.357103
0.376271
0.39522
0.413885
0.4322
0.450098
0.467515
0.484384
0.500642
0.516227
0.531076
0.545132
0.558338
0.570643
0.581998
0.592358
0.601682
0.609936
0.617091
0.623121
0.628009
0.631742
0.634316
0.635732
0.635997
0.635126
0.633141
0.630069
0.625947
0.620817
0.614725
0.607726
0.599882
0.591256
0.581921
0.571952
0.56143
0.550437
0.539062
0.527394
0.515527
0.503552
0.491567
0.479666
0.467944
0.456497
0.445419
0.434801
0.424733
0.415301
0.40659
0.398681
0.39165
0.385573
0.380522
0.376559
0.373753
0.372265
0.37216
0.0965036
0.0867637
0.0778774
0.0693039
0.0604569
0.0514174
0.0422752
0.0330768
0.0238698
0.0147061
0.00563695
-0.00328801
-0.0120212
-0.0205176
-0.0287351
-0.0366347
-0.0441806
-0.0513402
-0.0580841
-0.0643858
-0.0702217
-0.0755705
-0.0804135
-0.0847341
-0.0885172
-0.0917497
-0.0944197
-0.0965163
-0.09803
-0.0989517
-0.0992733
-0.0989873
-0.0980867
-0.0965648
-0.0944156
-0.0916332
-0.0882123
-0.084148
-0.0794361
-0.0740728
-0.0680549
-0.0613802
-0.0540471
-0.0460552
-0.0374052
-0.0280991
-0.0181403
-0.00753364
0.0037141
0.0155944
0.0280967
0.0412083
0.0549141
0.0691967
0.0840361
0.0994094
0.115291
0.131654
0.148465
0.165692
0.183297
0.20124
0.219478
0.237965
0.256653
0.275491
0.294426
0.3134
0.332355
0.351232
0.369969
0.388503
0.406769
0.424702
0.442237
0.45931
0.475854
0.491807
0.507106
0.52169
0.535501
0.548483
0.560583
0.571754
0.581949
0.591129
0.599258
0.606306
0.612249
0.617068
0.62075
0.623289
0.624687
0.624949
0.624091
0.622133
0.619102
0.615033
0.609966
0.603949
0.597034
0.589281
0.580753
0.571521
0.561657
0.55124
0.540352
0.529078
0.517504
0.505721
0.493819
0.48189
0.470026
0.458318
0.446857
0.435733
0.425033
0.414842
0.405242
0.396313
0.388131
0.380768
0.374294
0.368775
0.364271
0.360847
0.358578
0.357456
0.111843
0.100412
0.0902266
0.080635
0.0709128
0.0611347
0.0513866
0.0417015
0.0321137
0.0226629
0.0133888
0.00432984
-0.00447684
-0.012996
-0.0211946
-0.0290421
-0.0365103
-0.0435737
-0.0502092
-0.0563961
-0.0621156
-0.0673514
-0.0720886
-0.076314
-0.0800159
-0.0831835
-0.0858073
-0.0878784
-0.0893885
-0.0903301
-0.090696
-0.0904794
-0.0896737
-0.0882727
-0.0862701
-0.0836603
-0.0804376
-0.0765968
-0.072133
-0.0670418
-0.0613192
-0.0549622
-0.0479683
-0.0403359
-0.0320646
-0.0231551
-0.0136096
-0.00343167
0.00737339
0.0187985
0.0308345
0.0434703
0.0566923
0.0704846
0.0848288
0.0997038
0.115086
0.130948
0.14726
0.163991
0.181104
0.198562
0.216321
0.234339
0.252568
0.270957
0.289455
0.308006
0.326553
0.345037
0.363397
0.38157
0.399493
0.417101
0.434329
0.451113
0.467388
0.48309
0.498157
0.512528
0.526144
0.538949
0.550891
0.561921
0.571992
0.581065
0.589103
0.596075
0.601956
0.606727
0.610375
0.612893
0.614281
0.614545
0.613697
0.611759
0.608757
0.604723
0.599698
0.593728
0.586864
0.579164
0.570692
0.561514
0.551703
0.541336
0.530492
0.519254
0.507707
0.495938
0.484036
0.472088
0.460183
0.44841
0.436857
0.425608
0.414747
0.404356
0.394512
0.385292
0.376765
0.369001
0.362063
0.356012
0.350908
0.346811
0.343711
0.341523
0.127236
0.114118
0.102623
0.0919902
0.0813613
0.0708066
0.0604095
0.0501906
0.0401722
0.0303828
0.0208512
0.0116055
0.0026731
-0.00592019
-0.01415
-0.0219938
-0.0294309
-0.0364427
-0.0430122
-0.0491244
-0.0547657
-0.0599241
-0.0645891
-0.0687508
-0.0724008
-0.0755309
-0.078134
-0.0802031
-0.0817316
-0.0827133
-0.0831421
-0.0830119
-0.0823167
-0.0810505
-0.0792073
-0.0767813
-0.0737666
-0.0701576
-0.0659487
-0.061135
-0.0557118
-0.0496749
-0.043021
-0.0357473
-0.0278522
-0.0193352
-0.0101971
-0.000440067
0.00993209
0.0209137
0.0324973
0.0446732
0.0574294
0.0707516
0.0846231
0.0990243
0.113933
0.129324
0.145169
0.161438
0.178095
0.195105
0.212426
0.230017
0.24783
0.265816
0.283925
0.302103
0.320292
0.338434
0.356469
0.374336
0.391969
0.409307
0.426283
0.442833
0.458892
0.474397
0.489284
0.503493
0.516964
0.529641
0.541471
0.552403
0.562392
0.571395
0.579377
0.586304
0.592152
0.5969
0.600534
0.603046
0.604434
0.604705
0.603871
0.601949
0.598967
0.594956
0.589954
0.584007
0.577166
0.569487
0.561031
0.551865
0.542061
0.531692
0.520837
0.509577
0.497994
0.486174
0.474203
0.462166
0.45015
0.438239
0.426519
0.415072
0.403978
0.393314
0.383156
0.373575
0.364638
0.356409
0.348948
0.342308
0.336551
0.331736
0.327764
0.324478
0.142506
0.127713
0.114905
0.103217
0.0916601
0.0803006
0.0692208
0.0584303
0.0479405
0.0377695
0.0279359
0.0184584
0.00935483
0.00064231
-0.00766311
-0.0155467
-0.0229949
-0.0299958
-0.0365385
-0.0426134
-0.0482122
-0.0533274
-0.0579522
-0.0620807
-0.0657074
-0.068827
-0.0714346
-0.0735253
-0.0750944
-0.0761367
-0.0766474
-0.0766212
-0.0760527
-0.0749361
-0.0732657
-0.0710355
-0.0682394
-0.0648714
-0.0609254
-0.0563957
-0.0512767
-0.0455634
-0.0392513
-0.0323366
-0.0248164
-0.0166888
-0.00795322
0.00138965
0.0113375
0.0218862
0.0330298
0.0447602
0.0570673
0.0699383
0.083358
0.0973086
0.111769
0.126717
0.142124
0.157963
0.174199
0.190797
0.207718
0.224921
0.242361
0.259989
0.277755
0.295605
0.313485
0.331336
0.349098
0.366709
0.384107
0.401226
0.418004
0.434373
0.45027
0.46563
0.48039
0.494488
0.507864
0.520461
0.532225
0.543104
0.553052
0.562026
0.569987
0.576904
0.582748
0.587498
0.59114
0.593664
0.595068
0.595355
0.594538
0.592634
0.589667
0.585669
0.580677
0.574734
0.567892
0.560204
0.551732
0.542541
0.532701
0.522284
0.511368
0.500031
0.488356
0.476425
0.464322
0.452132
0.439937
0.427822
0.415867
0.404153
0.392758
0.381755
0.371216
0.36121
0.351801
0.343049
0.33501
0.327732
0.321278
0.315706
0.310831
0.306425
0.157491
0.141039
0.126922
0.114173
0.101673
0.0894882
0.0777002
0.0663086
0.0553145
0.0447263
0.0345537
0.0248058
0.015492
0.00662082
-0.00179948
-0.0097616
-0.017259
-0.0242861
-0.0308381
-0.0369107
-0.0425005
-0.0476045
-0.0522199
-0.0563445
-0.0599757
-0.0631112
-0.0657483
-0.0678843
-0.069516
-0.0706398
-0.0712519
-0.0713478
-0.0709227
-0.0699712
-0.0684878
-0.0664662
-0.0639003
-0.0607834
-0.057109
-0.0528707
-0.0480619
-0.0426766
-0.0367093
-0.030155
-0.0230094
-0.0152693
-0.00693251
0.00200162
0.0115324
0.0216573
0.0323721
0.0436703
0.0555434
0.0679804
0.0809677
0.0944892
0.108526
0.123056
0.138054
0.153492
0.169338
0.18556
0.202118
0.218972
0.236078
0.253389
0.270856
0.288426
0.306044
0.323651
0.341189
0.358596
0.375809
0.392763
0.409394
0.425636
0.441423
0.456691
0.471376
0.485414
0.498745
0.51131
0.523055
0.533927
0.543877
0.552861
0.560841
0.567781
0.573653
0.578435
0.58211
0.584667
0.586103
0.58642
0.585629
0.583746
0.580794
0.576803
0.57181
0.565858
0.558995
0.551275
0.542758
0.533508
0.523594
0.513088
0.502066
0.490604
0.478784
0.466687
0.454395
0.441991
0.429557
0.417173
0.404921
0.392876
0.381115
0.36971
0.35873
0.34824
0.338303
0.328975
0.320307
0.312347
0.305157
0.298795
0.292994
0.287454
0.172037
0.153948
0.138531
0.124719
0.111269
0.0982455
0.0857309
0.0737154
0.0621909
0.0511569
0.0406143
0.0305637
0.021006
0.0119421
0.00337242
-0.00470274
-0.0122836
-0.0193707
-0.0259649
-0.0320675
-0.0376797
-0.0428029
-0.0474383
-0.0515871
-0.0552499
-0.058427
-0.0611183
-0.063323
-0.0650395
-0.0662659
-0.0669991
-0.0672357
-0.0669714
-0.0662012
-0.0649196
-0.0631203
-0.0607969
-0.0579422
-0.0545492
-0.0506106
-0.046119
-0.0410674
-0.035449
-0.0292575
-0.0224874
-0.015134
-0.00719375
0.00133578
0.0104554
0.0201644
0.03046
0.0413377
0.0527905
0.0648092
0.0773819
0.0904942
0.104129
0.118265
0.132879
0.147946
0.163434
0.179311
0.19554
0.212082
0.228894
0.245929
0.263139
0.280472
0.297873
0.315284
0.332647
0.349899
0.366977
0.383817
0.400353
0.416519
0.432249
0.447477
0.462138
0.476167
0.489504
0.502087
0.513861
0.524771
0.534768
0.543805
0.551843
0.558844
0.564779
0.569624
0.573359
0.575973
0.577461
0.577824
0.577071
0.575217
0.572283
0.568299
0.5633
0.557327
0.550429
0.542657
0.534071
0.524734
0.514714
0.504082
0.492912
0.481282
0.469269
0.456956
0.444422
0.431749
0.419018
0.406308
0.393698
0.381264
0.369078
0.357213
0.345734
0.334706
0.324187
0.314234
0.304893
0.29621
0.288249
0.281071
0.274324
0.26764
0.186005
0.166302
0.149597
0.134726
0.120323
0.106453
0.0931989
0.080543
0.0684679
0.0569652
0.0460273
0.0356469
0.0258169
0.0165307
0.00778157
-0.000437168
-0.00813208
-0.0153097
-0.0219766
-0.028139
-0.033803
-0.0389741
-0.0436574
-0.0478574
-0.0515779
-0.054822
-0.0575917
-0.0598882
-0.0617119
-0.0630619
-0.0639365
-0.0643328
-0.0642472
-0.063675
-0.0626108
-0.0610483
-0.0589805
-0.0564001
-0.0532992
-0.0496698
-0.0455034
-0.0407921
-0.0355278
-0.029703
-0.0233106
-0.0163446
-0.00879973
-0.000672046
0.00804099
0.0173403
0.027225
0.0376922
0.0487368
0.0603512
0.0725254
0.0852467
0.0984992
0.112264
0.12652
0.141241
0.156399
0.171963
0.187896
0.204161
0.220715
0.237513
0.254507
0.271645
0.288874
0.306134
0.323368
0.340513
0.357506
0.374282
0.390775
0.406917
0.422641
0.437881
0.45257
0.466643
0.480036
0.492688
0.50454
0.515536
0.525626
0.534761
0.542898
0.55
0.556035
0.560975
0.564802
0.567501
0.569065
0.569494
0.568795
0.566981
0.564073
0.560099
0.555092
0.549093
0.542148
0.53431
0.525635
0.516188
0.506033
0.495243
0.48389
0.472051
0.459803
0.447227
0.434402
0.42141
0.408329
0.395239
0.382216
0.369336
0.356671
0.344291
0.33226
0.320642
0.309494
0.298869
0.288815
0.279371
0.270609
0.262591
0.254884
0.24705
0.199261
0.177969
0.159993
0.144069
0.128714
0.113995
0.0999937
0.0866856
0.074045
0.0620556
0.0507022
0.0399696
0.0298435
0.0203098
0.0113549
0.00296562
-0.00487077
-0.0121667
-0.0189339
-0.0251838
-0.0309268
-0.0361728
-0.0409305
-0.0452077
-0.0490113
-0.0523469
-0.0552189
-0.0576304
-0.0595834
-0.0610784
-0.0621146
-0.0626901
-0.0628016
-0.0624449
-0.0616144
-0.0603038
-0.0585059
-0.0562127
-0.0534157
-0.0501059
-0.0462741
-0.0419109
-0.0370072
-0.031554
-0.0255429
-0.0189663
-0.0118172
-0.00409005
0.00421937
0.0131138
0.0225941
0.0326593
0.0433059
0.0545285
0.0663185
0.0786651
0.0915541
0.104968
0.118888
0.133289
0.148144
0.163423
0.179091
0.195112
0.211444
0.228042
0.244859
0.261844
0.278942
0.296096
0.313247
0.330333
0.347289
0.364051
0.38055
0.39672
0.412491
0.427795
0.442564
0.456733
0.470234
0.483005
0.494986
0.506118
0.516349
0.525627
0.533909
0.541154
0.547328
0.552402
0.556354
0.559168
0.560835
0.561354
0.560728
0.558971
0.5561
0.552143
0.547131
0.541104
0.534107
0.526192
0.517415
0.507837
0.497525
0.486548
0.47498
0.462897
0.450376
0.437495
0.424335
0.410976
0.397497
0.383976
0.37049
0.357113
0.343916
0.33097
0.318337
0.306081
0.294258
0.28292
0.272113
0.261876
0.252284
0.243405
0.234723
0.225737
0.211679
0.188826
0.169594
0.152628
0.136328
0.120759
0.106007
0.0920399
0.0788232
0.0663336
0.0545487
0.0434459
0.0330036
0.0232009
0.0140175
0.00543408
-0.00256823
-0.0100073
-0.0169003
-0.0232631
-0.0291108
-0.034457
-0.0393143
-0.0436937
-0.0476049
-0.051056
-0.0540538
-0.0566031
-0.0587076
-0.0603689
-0.0615874
-0.0623619
-0.0626895
-0.0625662
-0.0619866
-0.060944
-0.059431
-0.0574389
-0.0549586
-0.05198
-0.0484931
-0.0444872
-0.0399519
-0.0348768
-0.0292519
-0.023068
-0.0163166
-0.00899035
-0.00108318
0.00740943
0.0164902
0.02616
0.0364174
0.0472585
0.0586769
0.0706632
0.0832053
0.0962876
0.109891
0.123995
0.138572
0.153593
0.169026
0.184834
0.200977
0.217411
0.234088
0.250959
0.267968
0.285059
0.302172
0.319245
0.336213
0.353009
0.369566
0.385813
0.401683
0.417104
0.432007
0.446324
0.459987
0.47293
0.485091
0.496411
0.506832
0.516303
0.524776
0.532209
0.538565
0.543812
0.547927
0.550891
0.552693
0.553328
0.5528
0.551119
0.548302
0.544373
0.539364
0.533312
0.526262
0.518263
0.509372
0.49965
0.489161
0.477975
0.466165
0.453807
0.440977
0.427755
0.414219
0.400451
0.386528
0.37253
0.358532
0.344609
0.330833
0.317272
0.303992
0.291052
0.278511
0.26642
0.254824
0.243763
0.233315
0.223554
0.213887
0.203743
0.223139
0.198753
0.178286
0.16029
0.143051
0.126637
0.111135
0.0965046
0.082705
0.0697057
0.057477
0.0459894
0.0352146
0.0251248
0.0156934
0.00689504
-0.00129493
-0.00889978
-0.0159415
-0.0224409
-0.028417
-0.0338875
-0.0388683
-0.0433738
-0.0474163
-0.0510065
-0.0541531
-0.0568629
-0.059141
-0.0609903
-0.062412
-0.0634056
-0.0639688
-0.0640976
-0.0637866
-0.063029
-0.0618168
-0.0601408
-0.057991
-0.0553565
-0.0522261
-0.0485879
-0.0444301
-0.0397408
-0.0345086
-0.0287225
-0.0223723
-0.0154489
-0.00794434
0.000147772
0.00883212
0.0181114
0.0279861
0.0384543
0.0495115
0.0611501
0.0733597
0.0861266
0.0994337
0.11326
0.127582
0.142371
0.157596
0.173221
0.189207
0.20551
0.222084
0.238878
0.255838
0.272908
0.290027
0.307132
0.324158
0.341038
0.357702
0.374079
0.390099
0.40569
0.420781
0.4353
0.449178
0.462348
0.474744
0.486304
0.496968
0.506683
0.515397
0.523065
0.529649
0.535114
0.539433
0.542585
0.544556
0.545341
0.544938
0.543358
0.540614
0.53673
0.531736
0.525666
0.518566
0.510483
0.501472
0.491594
0.480914
0.469501
0.457426
0.444766
0.431597
0.417999
0.404051
0.389834
0.375427
0.360908
0.346354
0.331841
0.317439
0.303219
0.289245
0.27558
0.26228
0.249399
0.23698
0.225064
0.213736
0.203074
0.192409
0.181103
0.233527
0.207637
0.185955
0.166943
0.148777
0.131525
0.115275
0.0999808
0.0855947
0.0720792
0.0593978
0.0475143
0.0363935
0.0260015
0.0163055
0.00727398
-0.00112296
-0.00891385
-0.0161255
-0.0227831
-0.02891
-0.0345274
-0.0396547
-0.0443092
-0.0485061
-0.0522582
-0.0555764
-0.0584692
-0.060943
-0.0630019
-0.064648
-0.0658814
-0.0667001
-0.0671004
-0.0670766
-0.0666218
-0.0657273
-0.0643834
-0.0625791
-0.0603028
-0.0575417
-0.054283
-0.0505133
-0.0462192
-0.0413877
-0.0360061
-0.0300623
-0.0235455
-0.0164457
-0.00875463
-0.000465635
0.00842599
0.0179227
0.0280246
0.0387289
0.0500302
0.0619198
0.0743858
0.0874126
0.100981
0.115069
0.129649
0.144691
0.16016
0.176019
0.192223
0.208728
0.225482
0.242433
0.259522
0.276689
0.293872
0.311003
0.328014
0.344834
0.361393
0.377616
0.39343
0.408763
0.42354
0.437689
0.451141
0.463827
0.475683
0.486645
0.496657
0.505665
0.513621
0.520482
0.526211
0.530779
0.534161
0.536342
0.537311
0.537068
0.535617
0.532972
0.529153
0.52419
0.518115
0.510972
0.502808
0.493677
0.483638
0.472757
0.461101
0.448743
0.435758
0.422224
0.408221
0.393828
0.379126
0.364196
0.349117
0.333966
0.318819
0.30375
0.288828
0.274119
0.259687
0.245589
0.231881
0.218607
0.205806
0.193574
0.181992
0.170316
0.157842
0.242734
0.215368
0.192493
0.172482
0.153401
0.135319
0.118327
0.102371
0.0873982
0.073363
0.0602228
0.0479348
0.0364576
0.0257508
0.0157758
0.00649543
-0.00212562
-0.0101208
-0.0175218
-0.0243578
-0.0306562
-0.036442
-0.0417376
-0.0465634
-0.050937
-0.0548735
-0.0583857
-0.0614838
-0.0641754
-0.0664658
-0.0683579
-0.0698521
-0.0709469
-0.0716386
-0.0719214
-0.071788
-0.0712292
-0.0702344
-0.068792
-0.066889
-0.0645117
-0.0616456
-0.0582761
-0.0543882
-0.0499671
-0.0449984
-0.0394681
-0.0333634
-0.0266726
-0.0193851
-0.0114924
-0.0029877
0.00613355
0.0158734
0.0262312
0.0372033
0.0487831
0.0609603
0.0737213
0.0870486
0.100921
0.115313
0.130195
0.145535
0.161294
0.17743
0.193898
0.210647
0.227625
0.244773
0.262031
0.279334
0.296616
0.313806
0.330834
0.347624
0.364104
0.380196
0.395825
0.410916
0.425394
0.439186
0.45222
0.464429
0.475747
0.486114
0.495471
0.503769
0.51096
0.517006
0.521871
0.525531
0.527964
0.529159
0.529112
0.527824
0.525308
0.521581
0.516669
0.510607
0.503434
0.495197
0.485949
0.475749
0.46466
0.452751
0.440096
0.426768
0.412847
0.398412
0.383544
0.368326
0.352839
0.337162
0.321375
0.305555
0.289778
0.274113
0.258629
0.243391
0.228459
0.213888
0.199726
0.186013
0.172851
0.16033
0.147628
0.133978
0.250652
0.221842
0.197797
0.176803
0.156821
0.13792
0.120194
0.103582
0.088023
0.073467
0.0598643
0.0471659
0.035324
0.0242922
0.0140261
0.0044832
-0.00437715
-0.0125932
-0.0202011
-0.0272343
-0.0337239
-0.0396983
-0.0451833
-0.0502017
-0.0547738
-0.0589168
-0.0626453
-0.0659709
-0.0689026
-0.0714465
-0.0736063
-0.0753829
-0.076775
-0.0777788
-0.0783884
-0.078596
-0.0783918
-0.0777645
-0.0767014
-0.0751884
-0.0732105
-0.0707519
-0.0677963
-0.0643272
-0.060328
-0.0557824
-0.0506746
-0.0449898
-0.038714
-0.0318348
-0.0243415
-0.0162252
-0.00747919
0.00190066
0.0119158
0.0225646
0.0338423
0.0457407
0.0582478
0.071348
0.0850214
0.0992442
0.113988
0.129221
0.144907
0.161003
0.177465
0.194243
0.211284
0.228529
0.245918
0.263385
0.280863
0.29828
0.315564
0.332639
0.349427
0.365852
0.381835
0.397298
0.412163
0.426354
0.439797
0.45242
0.464154
0.474934
0.484701
0.493399
0.500978
0.507395
0.512612
0.516599
0.519334
0.5208
0.52099
0.519905
0.517552
0.513948
0.509116
0.503088
0.495903
0.487606
0.478249
0.46789
0.456594
0.444427
0.431463
0.417779
0.403452
0.388563
0.373196
0.357432
0.341355
0.325047
0.308588
0.292058
0.275533
0.259087