/*--------------------------------*- C++ -*----------------------------------*\
  =========                 |
  \\      /  F ield         | OpenFOAM: The Open Source CFD Toolbox
   \\    /   O peration     | Website:  https://openfoam.org
    \\  /    A nd           | Version:  9
     \\/     M anipulation  |
\*---------------------------------------------------------------------------*/
FoamFile
{
    format      ascii;
    class       surfaceScalarField;
    location    "0.5";
    object      phi;
}
// * * * * * * * * * * * * * * * * * * * * * * * * * * * * * * * * * * * * * //

dimensions      [0 3 -1 0 0 0 0];

internalField   nonuniform List<scalar> 
32512
(
2.58749e-10
-2.92533e-10
1.09397e-09
-8.35241e-10
2.12587e-09
-1.03191e-09
3.08078e-09
-9.5491e-10
3.78802e-09
-7.07259e-10
4.1445e-09
-3.56509e-10
4.09112e-09
5.33834e-11
3.59788e-09
4.93246e-10
2.65406e-09
9.43826e-10
1.26168e-09
1.39237e-09
-5.68669e-10
1.83033e-09
-2.82068e-09
2.252e-09
-5.4743e-09
2.65361e-09
-8.50703e-09
3.03274e-09
-1.1895e-08
3.38797e-09
-1.56136e-08
3.7186e-09
-1.9638e-08
4.02444e-09
-2.39437e-08
4.30567e-09
-2.85065e-08
4.56278e-09
-3.33029e-08
4.79641e-09
-3.83102e-08
5.00737e-09
-4.35067e-08
5.19651e-09
-4.88715e-08
5.36477e-09
-5.43845e-08
5.51308e-09
-6.00269e-08
5.64235e-09
-6.57804e-08
5.7535e-09
-7.16278e-08
5.84738e-09
-7.75526e-08
5.9248e-09
-8.35391e-08
5.98648e-09
-8.95722e-08
6.03312e-09
-9.56375e-08
6.06531e-09
-1.01721e-07
6.0836e-09
-1.0781e-07
6.08843e-09
-1.1389e-07
6.08021e-09
-1.19949e-07
6.05925e-09
-1.25975e-07
6.02582e-09
-1.31955e-07
5.98012e-09
-1.37877e-07
5.92228e-09
-1.4373e-07
5.8524e-09
-1.495e-07
5.77054e-09
-1.55177e-07
5.6767e-09
-1.60748e-07
5.57088e-09
-1.66201e-07
5.45302e-09
-1.71524e-07
5.32307e-09
-1.76705e-07
5.18096e-09
-1.81731e-07
5.02662e-09
-1.86591e-07
4.85999e-09
-1.91272e-07
4.68102e-09
-1.95762e-07
4.48966e-09
-2.00048e-07
4.28591e-09
-2.04118e-07
4.0698e-09
-2.07959e-07
3.84137e-09
-2.1156e-07
3.60073e-09
-2.14908e-07
3.34803e-09
-2.17991e-07
3.08348e-09
-2.20799e-07
2.80734e-09
-2.23318e-07
2.51994e-09
-2.2554e-07
2.22167e-09
-2.27453e-07
1.91299e-09
-2.29048e-07
1.59444e-09
-2.30314e-07
1.26663e-09
-2.31244e-07
9.30233e-10
-2.3183e-07
5.86026e-10
-2.32065e-07
2.34843e-10
-2.31943e-07
-1.224e-10
-2.31458e-07
-4.8471e-10
-2.30607e-07
-8.51023e-10
-2.29387e-07
-1.2202e-09
-2.27796e-07
-1.59104e-09
-2.25834e-07
-1.96228e-09
-2.23501e-07
-2.33259e-09
-2.208e-07
-2.70059e-09
-2.17735e-07
-3.06485e-09
-2.14312e-07
-3.42391e-09
-2.10535e-07
-3.77627e-09
-2.06415e-07
-4.1204e-09
-2.0196e-07
-4.45478e-09
-1.97182e-07
-4.77784e-09
-1.92094e-07
-5.08806e-09
-1.8671e-07
-5.38391e-09
-1.81046e-07
-5.66388e-09
-1.7512e-07
-5.92651e-09
-1.68949e-07
-6.17037e-09
-1.62555e-07
-6.39411e-09
-1.55959e-07
-6.59641e-09
-1.49183e-07
-6.77606e-09
-1.42251e-07
-6.93192e-09
-1.35188e-07
-7.06297e-09
-1.2802e-07
-7.16827e-09
-1.20772e-07
-7.24701e-09
-1.13474e-07
-7.2985e-09
-1.06152e-07
-7.32218e-09
-9.88341e-08
-7.31763e-09
-9.15495e-08
-7.28457e-09
-8.43266e-08
-7.22287e-09
-7.71941e-08
-7.13255e-09
-7.01803e-08
-7.01378e-09
-6.33134e-08
-6.86688e-09
-5.6621e-08
-6.69234e-09
-5.01302e-08
-6.49082e-09
-4.3867e-08
-6.2631e-09
-3.78569e-08
-6.01014e-09
-3.21238e-08
-5.73304e-09
-2.66908e-08
-5.43305e-09
-2.15791e-08
-5.11159e-09
-1.68089e-08
-4.77022e-09
-1.23982e-08
-4.41067e-09
-8.36342e-09
-4.0348e-09
-4.71875e-09
-3.64465e-09
-1.47625e-09
-3.24246e-09
1.35446e-09
-2.83067e-09
3.76638e-09
-2.41192e-09
5.75545e-09
-1.9891e-09
7.32087e-09
-1.56544e-09
8.46549e-09
-1.14459e-09
9.19625e-09
-7.30737e-10
9.52488e-09
-3.28642e-10
9.46884e-09
5.60357e-11
9.05255e-09
4.16378e-10
8.30883e-09
7.43813e-10
7.28128e-09
1.02756e-09
6.02757e-09
1.25364e-09
4.62413e-09
1.40343e-09
3.17226e-09
1.45205e-09
1.80488e-09
1.36763e-09
6.93976e-10
1.11075e-09
5.00507e-11
6.42933e-10
4.87411e-11
8.18785e-10
-1.11135e-09
2.45223e-09
-2.4686e-09
4.28504e-09
-2.86466e-09
5.83501e-09
-2.50481e-09
6.74605e-09
-1.61829e-09
6.7733e-09
-3.83809e-10
5.75907e-09
1.06755e-09
3.61078e-09
2.64151e-09
2.83462e-10
4.27113e-09
-4.23323e-09
5.90905e-09
-9.92478e-09
7.52187e-09
-1.67589e-08
9.08613e-09
-2.46909e-08
1.05856e-08
-3.36673e-08
1.20092e-08
-4.36292e-08
1.33499e-08
-5.4514e-08
1.46034e-08
-6.62574e-08
1.57678e-08
-7.87943e-08
1.68426e-08
-9.20601e-08
1.78286e-08
-1.05991e-07
1.87275e-08
-1.20525e-07
1.95415e-08
-1.35602e-07
2.02733e-08
-1.51163e-07
2.09259e-08
-1.67152e-07
2.15023e-08
-1.83516e-07
2.20058e-08
-2.00202e-07
2.24394e-08
-2.1716e-07
2.28062e-08
-2.34344e-07
2.31088e-08
-2.51708e-07
2.33501e-08
-2.69207e-07
2.35323e-08
-2.868e-07
2.36578e-08
-3.04444e-07
2.37284e-08
-3.22102e-07
2.37459e-08
-3.39733e-07
2.37117e-08
-3.57301e-07
2.36271e-08
-3.74768e-07
2.34931e-08
-3.92099e-07
2.33104e-08
-4.09256e-07
2.30796e-08
-4.26205e-07
2.28012e-08
-4.4291e-07
2.24753e-08
-4.59335e-07
2.21022e-08
-4.75446e-07
2.16819e-08
-4.91207e-07
2.12142e-08
-5.06583e-07
2.06991e-08
-5.21539e-07
2.01364e-08
-5.36038e-07
1.95259e-08
-5.50045e-07
1.88675e-08
-5.63526e-07
1.81612e-08
-5.76443e-07
1.74069e-08
-5.88761e-07
1.66047e-08
-6.00446e-07
1.57547e-08
-6.11462e-07
1.48574e-08
-6.21775e-07
1.39133e-08
-6.3135e-07
1.29229e-08
-6.40154e-07
1.18874e-08
-6.48154e-07
1.08077e-08
-6.55319e-07
9.68515e-09
-6.61619e-07
8.52148e-09
-6.67024e-07
7.31851e-09
-6.71508e-07
6.07837e-09
-6.75045e-07
4.80349e-09
-6.77611e-07
3.49655e-09
-6.79186e-07
2.16056e-09
-6.7975e-07
7.98788e-10
-6.79287e-07
-5.85212e-10
-6.77784e-07
-1.9876e-09
-6.75231e-07
-3.40426e-09
-6.7162e-07
-4.83083e-09
-6.66949e-07
-6.26268e-09
-6.61216e-07
-7.69496e-09
-6.54426e-07
-9.12261e-09
-6.46586e-07
-1.05404e-08
-6.37708e-07
-1.19428e-08
-6.27808e-07
-1.33243e-08
-6.16905e-07
-1.46793e-08
-6.05023e-07
-1.60019e-08
-5.92191e-07
-1.72863e-08
-5.78443e-07
-1.85267e-08
-5.63813e-07
-1.97173e-08
-5.48345e-07
-2.08523e-08
-5.32083e-07
-2.19261e-08
-5.15076e-07
-2.29331e-08
-4.97378e-07
-2.3868e-08
-4.79047e-07
-2.47256e-08
-4.60142e-07
-2.55012e-08
-4.40728e-07
-2.61901e-08
-4.20872e-07
-2.6788e-08
-4.00644e-07
-2.72911e-08
-3.80116e-07
-2.7696e-08
-3.59363e-07
-2.79996e-08
-3.38462e-07
-2.81993e-08
-3.17492e-07
-2.82931e-08
-2.9653e-07
-2.82794e-08
-2.75657e-07
-2.81572e-08
-2.54954e-07
-2.79261e-08
-2.345e-07
-2.75861e-08
-2.14376e-07
-2.7138e-08
-1.9466e-07
-2.65831e-08
-1.75429e-07
-2.59233e-08
-1.56759e-07
-2.51609e-08
-1.38722e-07
-2.42992e-08
-1.21391e-07
-2.33419e-08
-1.0483e-07
-2.22931e-08
-8.91057e-08
-2.11578e-08
-7.42759e-08
-1.99414e-08
-6.03961e-08
-1.865e-08
-4.75163e-08
-1.72904e-08
-3.56813e-08
-1.58698e-08
-2.49297e-08
-1.43962e-08
-1.52937e-08
-1.28784e-08
-6.79843e-09
-1.13259e-08
5.38863e-10
-9.74911e-09
6.70935e-09
-8.15954e-09
1.17138e-08
-6.56986e-09
1.55635e-08
-4.99432e-09
1.8282e-08
-3.44915e-09
1.99064e-08
-1.95295e-09
2.04897e-08
-5.27364e-10
2.01042e-08
8.01868e-10
1.88445e-08
2.00365e-09
1.68322e-08
3.03996e-09
1.4222e-08
3.86387e-09
1.1208e-08
4.4172e-09
8.0309e-09
4.6289e-09
4.98263e-09
4.41647e-09
2.40148e-09
3.69351e-09
6.43257e-10
2.40299e-09
6.91253e-10
1.02923e-09
-2.1406e-09
2.86409e-09
-4.30342e-09
4.71095e-09
-4.71149e-09
5.98075e-09
-3.77459e-09
6.22514e-09
-1.86268e-09
5.11921e-09
7.22112e-10
2.44124e-09
3.7455e-09
-1.94808e-09
7.03081e-09
-8.12376e-09
1.04468e-08
-1.61115e-08
1.38968e-08
-2.58996e-08
1.731e-08
-3.74486e-08
2.06352e-08
-5.06986e-08
2.38356e-08
-6.5575e-08
2.68856e-08
-8.19929e-08
2.97677e-08
-9.98606e-08
3.24711e-08
-1.19082e-07
3.49893e-08
-1.39559e-07
3.732e-08
-1.61194e-07
3.94633e-08
-1.83888e-07
4.14216e-08
-2.07545e-07
4.31986e-08
-2.32071e-07
4.47991e-08
-2.57374e-07
4.62289e-08
-2.83365e-07
4.74937e-08
-3.09959e-07
4.85998e-08
-3.37073e-07
4.95532e-08
-3.64627e-07
5.03602e-08
-3.92545e-07
5.10263e-08
-4.20752e-07
5.1557e-08
-4.49177e-07
5.19574e-08
-4.77751e-07
5.22319e-08
-5.06407e-07
5.23848e-08
-5.35081e-07
5.24194e-08
-5.63708e-07
5.23391e-08
-5.92227e-07
5.21464e-08
-6.20578e-07
5.18434e-08
-6.48699e-07
5.14319e-08
-6.76533e-07
5.09133e-08
-7.0402e-07
5.02885e-08
-7.31103e-07
4.95581e-08
-7.57723e-07
4.87226e-08
-7.83824e-07
4.7782e-08
-8.09346e-07
4.67365e-08
-8.34233e-07
4.55859e-08
-8.58426e-07
4.43301e-08
-8.81869e-07
4.29688e-08
-9.04504e-07
4.15019e-08
-9.26272e-07
3.99295e-08
-9.47117e-07
3.82517e-08
-9.66981e-07
3.64689e-08
-9.85808e-07
3.45817e-08
-1.00354e-06
3.2591e-08
-1.02013e-06
3.04982e-08
-1.03551e-06
2.83049e-08
-1.04963e-06
2.60133e-08
-1.06245e-06
2.36261e-08
-1.07391e-06
2.11463e-08
-1.08397e-06
1.85776e-08
-1.09258e-06
1.59243e-08
-1.09969e-06
1.31911e-08
-1.10527e-06
1.03834e-08
-1.10928e-06
7.50732e-09
-1.11169e-06
4.56938e-09
-1.11247e-06
1.57682e-09
-1.11159e-06
-1.46254e-09
-1.10904e-06
-4.54026e-09
-1.10479e-06
-7.64736e-09
-1.09885e-06
-1.07743e-08
-1.0912e-06
-1.3911e-08
-1.08185e-06
-1.70469e-08
-1.0708e-06
-2.01709e-08
-1.05807e-06
-2.32718e-08
-1.04367e-06
-2.63377e-08
-1.02764e-06
-2.93565e-08
-1.01001e-06
-3.23161e-08
-9.90803e-07
-3.52038e-08
-9.70082e-07
-3.80072e-08
-9.47895e-07
-4.07137e-08
-9.24302e-07
-4.33108e-08
-8.99368e-07
-4.57861e-08
-8.73167e-07
-4.81273e-08
-8.45777e-07
-5.03228e-08
-8.17284e-07
-5.2361e-08
-7.87779e-07
-5.42308e-08
-7.57358e-07
-5.59219e-08
-7.26123e-07
-5.74245e-08
-6.94182e-07
-5.87294e-08
-6.61645e-07
-5.98285e-08
-6.28626e-07
-6.07142e-08
-5.95246e-07
-6.13801e-08
-5.61624e-07
-6.18209e-08
-5.27885e-07
-6.2032e-08
-4.94155e-07
-6.20102e-08
-4.60558e-07
-6.17534e-08
-4.27224e-07
-6.12606e-08
-3.94278e-07
-6.05323e-08
-3.61846e-07
-5.95699e-08
-3.30052e-07
-5.83764e-08
-2.9902e-07
-5.69559e-08
-2.68867e-07
-5.53139e-08
-2.39709e-07
-5.34571e-08
-2.11657e-07
-5.13937e-08
-1.84817e-07
-4.91329e-08
-1.59289e-07
-4.66855e-08
-1.35167e-07
-4.40636e-08
-1.12537e-07
-4.12803e-08
-9.14764e-08
-3.83506e-08
-7.20557e-08
-3.52904e-08
-5.43343e-08
-3.21176e-08
-3.83616e-08
-2.88512e-08
-2.41752e-08
-2.55122e-08
-1.18005e-08
-2.21238e-08
-1.24875e-09
-1.87112e-08
7.48373e-09
-1.53023e-08
1.44177e-08
-1.19283e-08
1.95931e-08
-8.62451e-09
2.30712e-08
-5.4309e-09
2.49376e-08
-2.39373e-09
2.53062e-08
4.33127e-10
2.43238e-08
2.98605e-09
2.21747e-08
5.18925e-09
1.90866e-08
6.95222e-09
1.53363e-08
8.16747e-09
1.12542e-08
8.71028e-09
7.22626e-09
8.44351e-09
3.68777e-09
7.23192e-09
1.10767e-09
4.98441e-09
1.79889e-09
9.62075e-10
-3.10266e-09
2.52262e-09
-5.86391e-09
3.79767e-09
-5.98655e-09
4.14015e-09
-4.11713e-09
3.05728e-09
-7.79835e-10
1.84371e-10
3.59502e-09
-4.73519e-09
8.66506e-09
-1.18689e-08
1.41645e-08
-2.13117e-08
1.98896e-08
-3.3101e-08
2.5686e-08
-4.72286e-08
3.14375e-08
-6.36512e-08
3.70577e-08
-8.22988e-08
4.24832e-08
-1.03081e-07
4.76683e-08
-1.25895e-07
5.25811e-08
-1.50625e-07
5.72007e-08
-1.77149e-07
6.1514e-08
-2.05344e-07
6.55147e-08
-2.35082e-07
6.92012e-08
-2.66236e-07
7.25755e-08
-2.9868e-07
7.56427e-08
-3.3229e-07
7.84095e-08
-3.66946e-07
8.08843e-08
-4.02528e-07
8.30762e-08
-4.38923e-07
8.49947e-08
-4.7602e-07
8.66497e-08
-5.1371e-07
8.80507e-08
-5.51891e-07
8.92071e-08
-5.90462e-07
9.01277e-08
-6.29325e-07
9.08206e-08
-6.68386e-07
9.12933e-08
-7.07554e-07
9.15527e-08
-7.46739e-07
9.16047e-08
-7.85854e-07
9.14545e-08
-8.24815e-07
9.11066e-08
-8.63536e-07
9.05648e-08
-9.01936e-07
8.98319e-08
-9.39933e-07
8.89103e-08
-9.77446e-07
8.78019e-08
-1.0144e-06
8.65079e-08
-1.0507e-06
8.5029e-08
-1.08629e-06
8.33658e-08
-1.12107e-06
8.15186e-08
-1.15497e-06
7.94872e-08
-1.18791e-06
7.72717e-08
-1.21981e-06
7.48721e-08
-1.2506e-06
7.22884e-08
-1.28019e-06
6.95209e-08
-1.30851e-06
6.65701e-08
-1.33548e-06
6.3437e-08
-1.36102e-06
6.0123e-08
-1.38506e-06
5.663e-08
-1.40752e-06
5.29605e-08
-1.42833e-06
4.91177e-08
-1.44743e-06
4.51058e-08
-1.46473e-06
4.09293e-08
-1.48018e-06
3.65941e-08
-1.49371e-06
3.21067e-08
-1.50526e-06
2.74745e-08
-1.51477e-06
2.27062e-08
-1.5222e-06
1.78112e-08
-1.52749e-06
1.28001e-08
-1.53061e-06
7.6845e-09
-1.53151e-06
2.47693e-09
-1.53016e-06
-2.80896e-09
-1.52654e-06
-8.15853e-09
-1.52063e-06
-1.35562e-08
-1.51242e-06
-1.89855e-08
-1.5019e-06
-2.4429e-08
-1.48908e-06
-2.98685e-08
-1.47397e-06
-3.5285e-08
-1.45658e-06
-4.0659e-08
-1.43695e-06
-4.59702e-08
-1.41511e-06
-5.11979e-08
-1.3911e-06
-5.63212e-08
-1.36499e-06
-6.13186e-08
-1.33683e-06
-6.61687e-08
-1.30669e-06
-7.08499e-08
-1.27466e-06
-7.5341e-08
-1.24083e-06
-7.96208e-08
-1.20528e-06
-8.36684e-08
-1.16814e-06
-8.74638e-08
-1.12952e-06
-9.09874e-08
-1.08953e-06
-9.42203e-08
-1.0483e-06
-9.7145e-08
-1.00598e-06
-9.97447e-08
-9.62709e-07
-1.02004e-07
-9.18629e-07
-1.03909e-07
-8.73896e-07
-1.05447e-07
-8.2867e-07
-1.06606e-07
-7.83112e-07
-1.07379e-07
-7.37388e-07
-1.07757e-07
-6.91664e-07
-1.07734e-07
-6.46109e-07
-1.07308e-07
-6.00892e-07
-1.06477e-07
-5.56183e-07
-1.05242e-07
-5.12148e-07
-1.03604e-07
-4.68954e-07
-1.0157e-07
-4.26763e-07
-9.9147e-08
-3.85733e-07
-9.63438e-08
-3.46018e-07
-9.31723e-08
-3.07765e-07
-8.96466e-08
-2.71115e-07
-8.5783e-08
-2.362e-07
-8.16e-08
-2.03145e-07
-7.71185e-08
-1.72064e-07
-7.23617e-08
-1.43059e-07
-6.7355e-08
-1.16223e-07
-6.21267e-08
-9.16335e-08
-5.67073e-08
-6.93544e-08
-5.11302e-08
-4.94345e-08
-4.54321e-08
-3.19055e-08
-3.96528e-08
-1.67804e-08
-3.38361e-08
-4.05222e-09
-2.80304e-08
6.30877e-09
-2.22893e-08
1.4357e-08
-1.66727e-08
2.01747e-08
-1.12486e-08
2.38751e-08
-6.09405e-09
2.56061e-08
-1.29797e-09
2.55552e-08
3.0369e-09
2.39536e-08
6.79085e-09
2.10816e-08
9.8245e-09
1.72727e-08
1.19769e-08
1.29168e-08
1.30664e-08
8.46273e-09
1.2897e-08
4.41973e-09
1.12741e-08
1.36402e-09
8.04051e-09
3.16311e-09
7.21932e-10
-3.82459e-09
1.64868e-09
-6.79064e-09
1.89614e-09
-6.23402e-09
8.05602e-10
-3.02664e-09
-2.12666e-09
2.15239e-09
-7.27749e-09
8.74583e-09
-1.49165e-08
1.6304e-08
-2.5223e-08
2.44711e-08
-3.83017e-08
3.29683e-08
-5.41952e-08
4.15795e-08
-7.28963e-08
5.01386e-08
-9.43581e-08
5.85196e-08
-1.18503e-07
6.66278e-08
-1.45228e-07
7.43937e-08
-1.74415e-07
8.17676e-08
-2.05929e-07
8.87154e-08
-2.39631e-07
9.52153e-08
-2.75371e-07
1.01255e-07
-3.12999e-07
1.0683e-07
-3.52364e-07
1.1194e-07
-3.93314e-07
1.16592e-07
-4.35698e-07
1.20794e-07
-4.79371e-07
1.24557e-07
-5.24186e-07
1.27892e-07
-5.70005e-07
1.30814e-07
-6.1669e-07
1.33335e-07
-6.64109e-07
1.35469e-07
-7.12132e-07
1.3723e-07
-7.60634e-07
1.3863e-07
-8.09494e-07
1.39681e-07
-8.58594e-07
1.40393e-07
-9.07818e-07
1.40777e-07
-9.57054e-07
1.40841e-07
-1.00619e-06
1.40593e-07
-1.05513e-06
1.4004e-07
-1.10375e-06
1.39187e-07
-1.15196e-06
1.38039e-07
-1.19965e-06
1.36599e-07
-1.24671e-06
1.34871e-07
-1.29306e-06
1.32855e-07
-1.33859e-06
1.30554e-07
-1.38319e-06
1.27969e-07
-1.42677e-06
1.251e-07
-1.46923e-06
1.21948e-07
-1.51047e-06
1.18513e-07
-1.5504e-06
1.14795e-07
-1.5889e-06
1.10794e-07
-1.62589e-06
1.06512e-07
-1.66127e-06
1.0195e-07
-1.69495e-06
9.71092e-08
-1.72682e-06
9.19925e-08
-1.75679e-06
8.66033e-08
-1.78477e-06
8.09457e-08
-1.81068e-06
7.50251e-08
-1.83442e-06
6.88479e-08
-1.85592e-06
6.24218e-08
-1.87508e-06
5.57558e-08
-1.89183e-06
4.88602e-08
-1.9061e-06
4.17468e-08
-1.91783e-06
3.44287e-08
-1.92693e-06
2.69208e-08
-1.93337e-06
1.92393e-08
-1.93709e-06
1.14021e-08
-1.93804e-06
3.42835e-09
-1.93619e-06
-4.66094e-09
-1.93151e-06
-1.28435e-08
-1.92397e-06
-2.10955e-08
-1.91356e-06
-2.9392e-08
-1.90028e-06
-3.77063e-08
-1.88414e-06
-4.6011e-08
-1.86515e-06
-5.42773e-08
-1.84333e-06
-6.24756e-08
-1.81873e-06
-7.05751e-08
-1.79138e-06
-7.85448e-08
-1.76135e-06
-8.63529e-08
-1.7287e-06
-9.39671e-08
-1.69351e-06
-1.01355e-07
-1.65588e-06
-1.08485e-07
-1.6159e-06
-1.15324e-07
-1.57368e-06
-1.2184e-07
-1.52934e-06
-1.28003e-07
-1.48302e-06
-1.33781e-07
-1.43487e-06
-1.39146e-07
-1.38502e-06
-1.4407e-07
-1.33363e-06
-1.48526e-07
-1.28089e-06
-1.52489e-07
-1.22696e-06
-1.55935e-07
-1.17202e-06
-1.58845e-07
-1.11627e-06
-1.61198e-07
-1.0599e-06
-1.62979e-07
-1.0031e-06
-1.64174e-07
-9.46087e-07
-1.64772e-07
-8.89058e-07
-1.64764e-07
-8.32221e-07
-1.64145e-07
-7.75784e-07
-1.62914e-07
-7.19954e-07
-1.61072e-07
-6.64936e-07
-1.58622e-07
-6.10934e-07
-1.55573e-07
-5.58146e-07
-1.51935e-07
-5.06766e-07
-1.47724e-07
-4.56982e-07
-1.42956e-07
-4.08975e-07
-1.37654e-07
-3.62917e-07
-1.31841e-07
-3.18969e-07
-1.25548e-07
-2.77284e-07
-1.18804e-07
-2.38e-07
-1.11645e-07
-2.01243e-07
-1.04112e-07
-1.67125e-07
-9.62453e-08
-1.35739e-07
-8.80929e-08
-1.07164e-07
-7.97056e-08
-8.14567e-08
-7.11391e-08
-5.86555e-08
-6.2454e-08
-3.8775e-08
-5.37167e-08
-2.18051e-08
-4.50003e-08
-7.70891e-09
-3.63854e-08
3.58004e-09
-2.79616e-08
1.21609e-08
-1.98294e-08
1.81686e-08
-1.21016e-08
2.17774e-08
-4.9068e-09
2.32053e-08
1.60896e-09
2.27175e-08
7.27849e-09
2.0631e-08
1.19109e-08
1.73183e-08
1.52898e-08
1.3211e-08
1.71742e-08
8.80428e-09
1.7304e-08
4.66535e-09
1.54126e-08
1.45503e-09
1.12506e-08
4.61824e-09
3.74564e-10
-4.19919e-09
4.11667e-10
-6.82778e-09
-7.11799e-10
-5.11056e-09
-3.62661e-09
-1.11853e-10
-8.82e-09
7.34577e-09
-1.66595e-08
1.65853e-08
-2.74103e-08
2.70548e-08
-4.12503e-08
3.83111e-08
-5.82833e-08
5.00012e-08
-7.85506e-08
6.18468e-08
-1.02042e-07
7.36301e-08
-1.28705e-07
8.51829e-08
-1.58454e-07
9.63769e-08
-1.91177e-07
1.07116e-07
-2.2674e-07
1.1733e-07
-2.64995e-07
1.2697e-07
-3.05782e-07
1.36003e-07
-3.48937e-07
1.44409e-07
-3.94286e-07
1.52179e-07
-4.41658e-07
1.59312e-07
-4.90877e-07
1.65812e-07
-5.41773e-07
1.71689e-07
-5.94173e-07
1.76957e-07
-6.47912e-07
1.8163e-07
-7.02824e-07
1.85725e-07
-7.58749e-07
1.8926e-07
-8.15532e-07
1.92252e-07
-8.7302e-07
1.94718e-07
-9.31066e-07
1.96676e-07
-9.89525e-07
1.98139e-07
-1.04826e-06
1.99125e-07
-1.10712e-06
1.99644e-07
-1.16599e-06
1.9971e-07
-1.22473e-06
1.99332e-07
-1.28321e-06
1.9852e-07
-1.3413e-06
1.97282e-07
-1.39889e-06
1.95623e-07
-1.45584e-06
1.93549e-07
-1.51203e-06
1.91063e-07
-1.56735e-06
1.8817e-07
-1.62166e-06
1.84871e-07
-1.67486e-06
1.81168e-07
-1.72682e-06
1.77062e-07
-1.77743e-06
1.72554e-07
-1.82656e-06
1.67645e-07
-1.8741e-06
1.62335e-07
-1.91993e-06
1.56627e-07
-1.96394e-06
1.5052e-07
-2.00601e-06
1.44019e-07
-2.04603e-06
1.37125e-07
-2.08388e-06
1.29844e-07
-2.11945e-06
1.22179e-07
-2.15265e-06
1.14138e-07
-2.18335e-06
1.05728e-07
-2.21146e-06
9.696e-08
-2.23688e-06
8.7844e-08
-2.25952e-06
7.83935e-08
-2.27928e-06
6.86232e-08
-2.29609e-06
5.85503e-08
-2.30985e-06
4.81935e-08
-2.32051e-06
3.75741e-08
-2.32798e-06
2.67149e-08
-2.33222e-06
1.56414e-08
-2.33317e-06
4.38088e-09
-2.3308e-06
-7.03729e-09
-2.32506e-06
-1.85817e-08
-2.31594e-06
-3.02188e-08
-2.30341e-06
-4.19135e-08
-2.28749e-06
-5.36287e-08
-2.26818e-06
-6.53257e-08
-2.24549e-06
-7.69643e-08
-2.21946e-06
-8.85032e-08
-2.19014e-06
-9.98998e-08
-2.15757e-06
-1.1111e-07
-2.12183e-06
-1.22091e-07
-2.08301e-06
-1.32796e-07
-2.04118e-06
-1.43182e-07
-1.99646e-06
-1.53202e-07
-1.94897e-06
-1.62813e-07
-1.89884e-06
-1.71971e-07
-1.84621e-06
-1.80631e-07
-1.79124e-06
-1.88752e-07
-1.73409e-06
-1.96294e-07
-1.67495e-06
-2.03217e-07
-1.61399e-06
-2.09485e-07
-1.55142e-06
-2.15062e-07
-1.48743e-06
-2.19918e-07
-1.42226e-06
-2.24022e-07
-1.3561e-06
-2.2735e-07
-1.28921e-06
-2.29877e-07
-1.22179e-06
-2.31586e-07
-1.1541e-06
-2.32461e-07
-1.08638e-06
-2.32491e-07
-1.01885e-06
-2.31669e-07
-9.51776e-07
-2.29991e-07
-8.85388e-07
-2.2746e-07
-8.19927e-07
-2.24082e-07
-7.55631e-07
-2.19868e-07
-6.92733e-07
-2.14834e-07
-6.31457e-07
-2.08999e-07
-5.72024e-07
-2.02389e-07
-5.14645e-07
-1.95033e-07
-4.59519e-07
-1.86968e-07
-4.06835e-07
-1.78231e-07
-3.56771e-07
-1.68868e-07
-3.09487e-07
-1.58929e-07
-2.65131e-07
-1.48468e-07
-2.23831e-07
-1.37546e-07
-1.85696e-07
-1.26227e-07
-1.50817e-07
-1.14584e-07
-1.19261e-07
-1.02695e-07
-9.10709e-08
-9.06443e-08
-6.62633e-08
-7.85244e-08
-4.48267e-08
-6.64368e-08
-2.67192e-08
-5.44929e-08
-1.18651e-08
-4.28157e-08
-1.52832e-10
-3.15417e-08
8.56884e-09
-2.08232e-08
1.44935e-08
-1.08313e-08
1.78608e-08
-1.75821e-09
1.89599e-08
6.17937e-09
1.81331e-08
1.27375e-08
1.57796e-08
1.76431e-08
1.23602e-08
2.05938e-08
8.40376e-09
2.12609e-08
4.5194e-09
1.92969e-08
1.42269e-09
1.43472e-08
6.04091e-09
-3.85428e-11
-4.16067e-09
-1.06681e-09
-5.79958e-09
-3.81192e-09
-2.36547e-09
-8.84749e-09
4.9237e-09
-1.66223e-08
1.51205e-08
-2.74771e-08
2.74401e-08
-4.16584e-08
4.12362e-08
-5.9331e-08
5.59836e-08
-8.05886e-08
7.12589e-08
-1.05465e-07
8.67228e-08
-1.33941e-07
1.02106e-07
-1.65957e-07
1.17199e-07
-2.01418e-07
1.31838e-07
-2.402e-07
1.45898e-07
-2.82158e-07
1.59289e-07
-3.27131e-07
1.71942e-07
-3.74942e-07
1.83815e-07
-4.2541e-07
1.94877e-07
-4.78345e-07
2.05114e-07
-5.33556e-07
2.14522e-07
-5.90849e-07
2.23105e-07
-6.50031e-07
2.30872e-07
-7.10912e-07
2.37838e-07
-7.73302e-07
2.44021e-07
-8.37017e-07
2.49441e-07
-9.01876e-07
2.54119e-07
-9.677e-07
2.58077e-07
-1.03432e-06
2.61336e-07
-1.10156e-06
2.63916e-07
-1.16926e-06
2.65839e-07
-1.23725e-06
2.67121e-07
-1.30539e-06
2.6778e-07
-1.37351e-06
2.6783e-07
-1.44146e-06
2.67285e-07
-1.5091e-06
2.66157e-07
-1.57627e-06
2.64456e-07
-1.64284e-06
2.62189e-07
-1.70866e-06
2.59364e-07
-1.77358e-06
2.55987e-07
-1.83747e-06
2.52061e-07
-1.90019e-06
2.4759e-07
-1.9616e-06
2.42576e-07
-2.02156e-06
2.37022e-07
-2.07993e-06
2.30928e-07
-2.13658e-06
2.24298e-07
-2.19138e-06
2.17131e-07
-2.24418e-06
2.09432e-07
-2.29487e-06
2.01201e-07
-2.34329e-06
1.92443e-07
-2.38933e-06
1.83163e-07
-2.43285e-06
1.73367e-07
-2.47373e-06
1.63062e-07
-2.51185e-06
1.52258e-07
-2.54709e-06
1.40965e-07
-2.57933e-06
1.29198e-07
-2.60846e-06
1.16971e-07
-2.63436e-06
1.04302e-07
-2.65695e-06
9.12125e-08
-2.67613e-06
7.77247e-08
-2.6918e-06
6.38643e-08
-2.70388e-06
4.96596e-08
-2.71231e-06
3.51417e-08
-2.71701e-06
2.03443e-08
-2.71794e-06
5.30415e-09
-2.71503e-06
-9.93969e-09
-2.70827e-06
-2.53453e-08
-2.69762e-06
-4.08683e-08
-2.68307e-06
-5.6462e-08
-2.66462e-06
-7.20771e-08
-2.64229e-06
-8.76626e-08
-2.61609e-06
-1.03165e-07
-2.58606e-06
-1.18531e-07
-2.55226e-06
-1.33702e-07
-2.51474e-06
-1.48622e-07
-2.4736e-06
-1.63233e-07
-2.42892e-06
-1.77475e-07
-2.38081e-06
-1.9129e-07
-2.3294e-06
-2.04618e-07
-2.27481e-06
-2.17401e-07
-2.2172e-06
-2.2958e-07
-2.15673e-06
-2.41099e-07
-2.09358e-06
-2.51902e-07
-2.02794e-06
-2.61937e-07
-1.96001e-06
-2.71152e-07
-1.88999e-06
-2.79498e-07
-1.81812e-06
-2.86931e-07
-1.74463e-06
-2.93409e-07
-1.66976e-06
-2.98894e-07
-1.59376e-06
-3.0335e-07
-1.51689e-06
-3.0675e-07
-1.43941e-06
-3.09068e-07
-1.36158e-06
-3.10283e-07
-1.28369e-06
-3.10383e-07
-1.20601e-06
-3.09356e-07
-1.1288e-06
-3.07201e-07
-1.05234e-06
-3.03919e-07
-9.76902e-07
-2.99518e-07
-9.02756e-07
-2.94013e-07
-8.30165e-07
-2.87426e-07
-7.59382e-07
-2.79782e-07
-6.90656e-07
-2.71115e-07
-6.24225e-07
-2.61464e-07
-5.60316e-07
-2.50877e-07
-4.99142e-07
-2.39405e-07
-4.40903e-07
-2.27107e-07
-3.85781e-07
-2.1405e-07
-3.33942e-07
-2.00307e-07
-2.85532e-07
-1.85956e-07
-2.40674e-07
-1.71085e-07
-1.9947e-07
-1.55788e-07
-1.61996e-07
-1.40169e-07
-1.28301e-07
-1.24339e-07
-9.84052e-08
-1.08421e-07
-7.22965e-08
-9.25454e-08
-4.99303e-08
-7.68591e-08
-3.12251e-08
-6.15208e-08
-1.60606e-08
-4.67061e-08
-4.27483e-09
-3.2609e-08
4.33902e-09
-1.94451e-08
1.00353e-08
-7.45438e-09
1.31192e-08
3.09563e-09
1.39496e-08
1.1907e-08
1.29435e-08
1.8649e-08
1.05805e-08
2.29567e-08
7.41143e-09
2.44302e-08
4.0707e-09
2.26378e-08
1.30041e-09
1.71175e-08
7.34129e-09
-4.90657e-10
-3.67001e-09
-2.70147e-09
-3.58881e-09
-7.2463e-09
2.17933e-09
-1.46223e-08
1.22997e-08
-2.52231e-08
2.57213e-08
-3.93488e-08
4.15658e-08
-5.72155e-08
5.91029e-08
-7.89648e-08
7.77329e-08
-1.04673e-07
9.69666e-08
-1.34357e-07
1.16408e-07
-1.67989e-07
1.35738e-07
-2.05494e-07
1.54705e-07
-2.46767e-07
1.73111e-07
-2.91673e-07
1.90804e-07
-3.40054e-07
2.07669e-07
-3.91735e-07
2.23623e-07
-4.46526e-07
2.38606e-07
-5.04231e-07
2.52581e-07
-5.64643e-07
2.65527e-07
-6.27554e-07
2.77434e-07
-6.92755e-07
2.88305e-07
-7.60032e-07
2.9815e-07
-8.29179e-07
3.06984e-07
-8.99986e-07
3.14828e-07
-9.7225e-07
3.21705e-07
-1.04577e-06
3.27639e-07
-1.12035e-06
3.32656e-07
-1.1958e-06
3.36782e-07
-1.27192e-06
3.40041e-07
-1.34854e-06
3.42456e-07
-1.42547e-06
3.44051e-07
-1.50253e-06
3.44845e-07
-1.57956e-06
3.44857e-07
-1.65638e-06
3.44103e-07
-1.73282e-06
3.42598e-07
-1.80872e-06
3.40354e-07
-1.88391e-06
3.37381e-07
-1.95823e-06
3.33688e-07
-2.03153e-06
3.29283e-07
-2.10364e-06
3.24171e-07
-2.1744e-06
3.18356e-07
-2.24367e-06
3.11843e-07
-2.31128e-06
3.04633e-07
-2.37708e-06
2.9673e-07
-2.44092e-06
2.88137e-07
-2.50265e-06
2.78856e-07
-2.56211e-06
2.68891e-07
-2.61915e-06
2.58245e-07
-2.67363e-06
2.46925e-07
-2.72541e-06
2.34937e-07
-2.77433e-06
2.2229e-07
-2.82026e-06
2.08994e-07
-2.86306e-06
1.95061e-07
-2.90261e-06
1.80507e-07
-2.93876e-06
1.6535e-07
-2.9714e-06
1.49609e-07
-3.0004e-06
1.33309e-07
-3.02566e-06
1.16475e-07
-3.04708e-06
9.91385e-08
-3.06455e-06
8.13317e-08
-3.07798e-06
6.30915e-08
-3.08729e-06
4.44578e-08
-3.09242e-06
2.5474e-08
-3.09331e-06
6.18693e-09
-3.08989e-06
-1.33531e-08
-3.08215e-06
-3.30928e-08
-3.07004e-06
-5.29753e-08
-3.05356e-06
-7.29412e-08
-3.03271e-06
-9.29279e-08
-3.0075e-06
-1.1287e-07
-2.97796e-06
-1.32701e-07
-2.94414e-06
-1.52351e-07
-2.9061e-06
-1.71749e-07
-2.8639e-06
-1.90821e-07
-2.81764e-06
-2.09495e-07
-2.76742e-06
-2.27695e-07
-2.71336e-06
-2.45347e-07
-2.6556e-06
-2.62376e-07
-2.59429e-06
-2.78708e-07
-2.5296e-06
-2.9427e-07
-2.46171e-06
-3.0899e-07
-2.39081e-06
-3.22799e-07
-2.31712e-06
-3.35628e-07
-2.24086e-06
-3.47415e-07
-2.16226e-06
-3.58097e-07
-2.08157e-06
-3.67619e-07
-1.99905e-06
-3.75926e-07
-1.91498e-06
-3.82972e-07
-1.82962e-06
-3.88712e-07
-1.74325e-06
-3.93111e-07
-1.65619e-06
-3.96136e-07
-1.56871e-06
-3.97763e-07
-1.48112e-06
-3.97973e-07
-1.39372e-06
-3.96755e-07
-1.30681e-06
-3.94105e-07
-1.22071e-06
-3.90025e-07
-1.1357e-06
-3.84527e-07
-1.05208e-06
-3.77628e-07
-9.70154e-07
-3.69356e-07
-8.90192e-07
-3.59744e-07
-8.12471e-07
-3.48835e-07
-7.37256e-07
-3.36679e-07
-6.64798e-07
-3.23335e-07
-5.95332e-07
-3.0887e-07
-5.29081e-07
-2.93359e-07
-4.66246e-07
-2.76886e-07
-4.0701e-07
-2.59542e-07
-3.51536e-07
-2.4143e-07
-2.9996e-07
-2.2266e-07
-2.52397e-07
-2.03352e-07
-2.0893e-07
-1.83636e-07
-1.69617e-07
-1.63653e-07
-1.3448e-07
-1.43557e-07
-1.03511e-07
-1.23514e-07
-7.6664e-08
-1.03706e-07
-5.38547e-08
-8.43301e-08
-3.49582e-08
-6.56026e-08
-1.98059e-08
-4.77613e-08
-8.18331e-09
-3.10677e-08
1.72951e-10
-1.58106e-08
5.57741e-09
-2.30873e-09
8.39901e-09
9.08552e-09
9.06465e-09
1.79834e-08
8.06445e-09
2.39568e-08
5.95971e-09
2.65349e-08
3.39445e-09
2.52032e-08
1.11409e-09
1.93979e-08
8.4554e-09
-9.64728e-10
-2.70528e-09
-4.43338e-09
-1.20189e-10
-1.09004e-08
8.64628e-09
-2.0775e-08
2.21743e-08
-3.43842e-08
3.93305e-08
-5.19766e-08
5.91582e-08
-7.37285e-08
8.08547e-08
-9.97498e-08
1.03754e-07
-1.30091e-07
1.27308e-07
-1.64751e-07
1.51067e-07
-2.03681e-07
1.74668e-07
-2.46795e-07
1.97818e-07
-2.9397e-07
2.20287e-07
-3.4506e-07
2.41894e-07
-3.99893e-07
2.62503e-07
-4.58281e-07
2.82011e-07
-5.20022e-07
3.00347e-07
-5.84902e-07
3.17462e-07
-6.52702e-07
3.33327e-07
-7.23199e-07
3.47931e-07
-7.96166e-07
3.61271e-07
-8.71375e-07
3.73359e-07
-9.48601e-07
3.8421e-07
-1.02762e-06
3.93846e-07
-1.10821e-06
4.02294e-07
-1.19015e-06
4.0958e-07
-1.27323e-06
4.15736e-07
-1.35724e-06
4.20788e-07
-1.44196e-06
4.24768e-07
-1.52721e-06
4.27702e-07
-1.61277e-06
4.29616e-07
-1.69846e-06
4.30534e-07
-1.78408e-06
4.30478e-07
-1.86945e-06
4.29468e-07
-1.95437e-06
4.27521e-07
-2.03867e-06
4.24652e-07
-2.12216e-06
4.20873e-07
-2.20467e-06
4.16196e-07
-2.28602e-06
4.10628e-07
-2.36602e-06
4.04177e-07
-2.44452e-06
3.9685e-07
-2.52133e-06
3.88651e-07
-2.59628e-06
3.79584e-07
-2.6692e-06
3.69654e-07
-2.73993e-06
3.58863e-07
-2.80829e-06
3.47217e-07
-2.87412e-06
3.3472e-07
-2.93725e-06
3.21379e-07
-2.99753e-06
3.07201e-07
-3.05478e-06
2.92195e-07
-3.10886e-06
2.76372e-07
-3.15962e-06
2.59747e-07
-3.20689e-06
2.42336e-07
-3.25054e-06
2.24158e-07
-3.29043e-06
2.05237e-07
-3.32642e-06
1.85597e-07
-3.35838e-06
1.65269e-07
-3.38619e-06
1.44287e-07
-3.40974e-06
1.22688e-07
-3.42892e-06
1.00513e-07
-3.44364e-06
7.78084e-08
-3.45381e-06
5.46241e-08
-3.45935e-06
3.10141e-08
-3.46019e-06
7.03651e-09
-3.4563e-06
-1.72465e-08
-3.44763e-06
-4.17686e-08
-3.43414e-06
-6.64598e-08
-3.41584e-06
-9.12466e-08
-3.39271e-06
-1.16052e-07
-3.36479e-06
-1.40796e-07
-3.33209e-06
-1.65395e-07
-3.29468e-06
-1.89764e-07
-3.25261e-06
-2.13815e-07
-3.20598e-06
-2.37459e-07
-3.15487e-06
-2.60606e-07
-3.0994e-06
-2.83164e-07
-3.0397e-06
-3.05041e-07
-2.97593e-06
-3.26146e-07
-2.90825e-06
-3.46388e-07
-2.83685e-06
-3.65677e-07
-2.76191e-06
-3.83926e-07
-2.68366e-06
-4.01049e-07
-2.60232e-06
-4.16965e-07
-2.51814e-06
-4.31593e-07
-2.43138e-06
-4.44861e-07
-2.3423e-06
-4.56697e-07
-2.25119e-06
-4.67038e-07
-2.15834e-06
-4.75824e-07
-2.06405e-06
-4.83004e-07
-1.96863e-06
-4.88532e-07
-1.87239e-06
-4.92369e-07
-1.77567e-06
-4.94485e-07
-1.67879e-06
-4.94857e-07
-1.58207e-06
-4.93472e-07
-1.48585e-06
-4.90325e-07
-1.39045e-06
-4.85418e-07
-1.29621e-06
-4.78767e-07
-1.20345e-06
-4.70392e-07
-1.11248e-06
-4.60327e-07
-1.02361e-06
-4.48614e-07
-9.37141e-07
-4.35304e-07
-8.5336e-07
-4.20461e-07
-7.7254e-07
-4.04155e-07
-6.9494e-07
-3.8647e-07
-6.208e-07
-3.67499e-07
-5.50343e-07
-3.47343e-07
-4.83768e-07
-3.26117e-07
-4.21252e-07
-3.03946e-07
-3.62947e-07
-2.80965e-07
-3.08978e-07
-2.57321e-07
-2.59439e-07
-2.33174e-07
-2.14395e-07
-2.08698e-07
-1.73874e-07
-1.84078e-07
-1.37871e-07
-1.59517e-07
-1.06343e-07
-1.35234e-07
-7.92049e-08
-1.11468e-07
-5.63311e-08
-8.84764e-08
-3.75502e-08
-6.65421e-08
-2.26445e-08
-4.59735e-08
-1.13466e-08
-2.71085e-08
-3.33786e-09
-1.03174e-08
1.75467e-09
3.99306e-09
4.36156e-09
1.53766e-08
4.97555e-09
2.33427e-08
4.15848e-09
2.73519e-08
2.55048e-09
2.68112e-08
8.82909e-10
2.10655e-08
9.33834e-09
-1.44986e-09
-1.25544e-09
-6.222e-09
4.65193e-09
-1.46917e-08
1.71159e-08
-2.71747e-08
3.46573e-08
-4.39239e-08
5.60797e-08
-6.51289e-08
8.03632e-08
-9.09184e-08
1.06644e-07
-1.21364e-07
1.342e-07
-1.56486e-07
1.62429e-07
-1.96255e-07
1.90837e-07
-2.40603e-07
2.19016e-07
-2.89423e-07
2.46638e-07
-3.42578e-07
2.73442e-07
-3.99905e-07
2.99221e-07
-4.61218e-07
3.23816e-07
-5.26315e-07
3.47108e-07
-5.9498e-07
3.69012e-07
-6.66986e-07
3.89468e-07
-7.42101e-07
4.08442e-07
-8.20085e-07
4.25914e-07
-9.00697e-07