/*--------------------------------*- C++ -*----------------------------------*\
  =========                 |
  \\      /  F ield         | OpenFOAM: The Open Source CFD Toolbox
   \\    /   O peration     | Website:  https://openfoam.org
    \\  /    A nd           | Version:  9
     \\/     M anipulation  |
\*---------------------------------------------------------------------------*/
FoamFile
{
    format      ascii;
    class       volVectorField;
    location    "0.5";
    object      U;
}
// * * * * * * * * * * * * * * * * * * * * * * * * * * * * * * * * * * * * * //

dimensions      [0 1 -1 0 0 0 0];

internalField   nonuniform List<vector> 
16384
(
(1.20876e-05 -1.43832e-05 0)
(7.94186e-05 -4.51775e-05 0)
(0.000204548 -5.78383e-05 0)
(0.000338 -5.59272e-05 0)
(0.000448281 -4.54785e-05 0)
(0.000518697 -3.03647e-05 0)
(0.00053948 -1.28866e-05 0)
(0.000505207 5.56385e-06 0)
(0.00041347 2.41503e-05 0)
(0.000263858 4.23704e-05 0)
(5.72805e-05 5.99184e-05 0)
(-0.000204472 7.66097e-05 0)
(-0.00051902 9.23363e-05 0)
(-0.000883604 0.00010704 0)
(-0.00129523 0.000120698 0)
(-0.00175077 0.000133309 0)
(-0.00224706 0.000144889 0)
(-0.00278091 0.000155467 0)
(-0.00334921 0.000165078 0)
(-0.00394889 0.000173761 0)
(-0.00457701 0.000181559 0)
(-0.00523071 0.000188517 0)
(-0.00590726 0.000194679 0)
(-0.00660404 0.000200088 0)
(-0.00731856 0.000204785 0)
(-0.00804845 0.000208812 0)
(-0.00879144 0.000212204 0)
(-0.00954536 0.000214996 0)
(-0.0103082 0.000217219 0)
(-0.0110779 0.000218902 0)
(-0.0118526 0.000220069 0)
(-0.0126306 0.000220742 0)
(-0.01341 0.000220938 0)
(-0.0141892 0.000220674 0)
(-0.0149666 0.000219962 0)
(-0.0157404 0.000218811 0)
(-0.0165092 0.000217228 0)
(-0.0172713 0.000215218 0)
(-0.0180253 0.000212784 0)
(-0.0187695 0.000209926 0)
(-0.0195025 0.000206643 0)
(-0.0202227 0.000202935 0)
(-0.0209286 0.000198796 0)
(-0.0216187 0.000194224 0)
(-0.0222913 0.000189214 0)
(-0.022945 0.000183761 0)
(-0.0235781 0.000177862 0)
(-0.0241891 0.000171512 0)
(-0.0247764 0.000164707 0)
(-0.0253385 0.000157446 0)
(-0.0258736 0.000149726 0)
(-0.0263803 0.000141549 0)
(-0.026857 0.000132916 0)
(-0.0273021 0.00012383 0)
(-0.027714 0.000114297 0)
(-0.0280914 0.000104326 0)
(-0.0284327 9.39264e-05 0)
(-0.0287365 8.31113e-05 0)
(-0.0290014 7.18964e-05 0)
(-0.0292262 6.03002e-05 0)
(-0.0294095 4.83442e-05 0)
(-0.0295504 3.60528e-05 0)
(-0.0296476 2.34532e-05 0)
(-0.0297004 1.0576e-05 0)
(-0.0297077 -2.54545e-06 0)
(-0.029669 -1.58746e-05 0)
(-0.0295836 -2.93719e-05 0)
(-0.0294511 -4.29954e-05 0)
(-0.0292712 -5.67e-05 0)
(-0.0290438 -7.04382e-05 0)
(-0.0287689 -8.41602e-05 0)
(-0.0284467 -9.78137e-05 0)
(-0.0280775 -0.000111345 0)
(-0.027662 -0.000124698 0)
(-0.027201 -0.000137815 0)
(-0.0266953 -0.000150639 0)
(-0.0261462 -0.000163111 0)
(-0.0255549 -0.000175172 0)
(-0.0249231 -0.000186761 0)
(-0.0242524 -0.000197821 0)
(-0.0235448 -0.000208294 0)
(-0.0228025 -0.000218123 0)
(-0.0220277 -0.000227252 0)
(-0.0212229 -0.000235629 0)
(-0.0203908 -0.000243203 0)
(-0.0195343 -0.000249927 0)
(-0.0186562 -0.000255757 0)
(-0.0177597 -0.000260652 0)
(-0.0168481 -0.000264576 0)
(-0.0159247 -0.000267497 0)
(-0.014993 -0.000269387 0)
(-0.0140564 -0.000270225 0)
(-0.0131185 -0.000269994 0)
(-0.0121831 -0.000268682 0)
(-0.0112538 -0.000266284 0)
(-0.0103341 -0.000262799 0)
(-0.0094279 -0.000258233 0)
(-0.00853868 -0.000252597 0)
(-0.00767005 -0.00024591 0)
(-0.00682551 -0.000238194 0)
(-0.00600846 -0.00022948 0)
(-0.00522221 -0.000219803 0)
(-0.00446993 -0.000209203 0)
(-0.00375462 -0.000197724 0)
(-0.00307913 -0.000185421 0)
(-0.00244611 -0.000172349 0)
(-0.001858 -0.000158571 0)
(-0.00131703 -0.000144154 0)
(-0.000825148 -0.000129173 0)
(-0.000384047 -0.000113706 0)
(4.88099e-06 -9.78425e-05 0)
(0.000340564 -8.16761e-05 0)
(0.000622285 -6.53082e-05 0)
(0.000849721 -4.88532e-05 0)
(0.00102299 -3.24433e-05 0)
(0.0011427 -1.62294e-05 0)
(0.00121003 -3.86049e-07 0)
(0.0012268 1.48754e-05 0)
(0.00119567 2.92854e-05 0)
(0.00112025 4.24944e-05 0)
(0.00100535 5.40401e-05 0)
(0.000857356 6.32817e-05 0)
(0.000684747 6.92921e-05 0)
(0.000498787 7.07264e-05 0)
(0.000314284 6.57085e-05 0)
(0.000150678 5.1712e-05 0)
(3.48868e-05 2.63923e-05 0)
(-3.55361e-06 -3.61976e-06 0)
(4.38746e-05 -8.29402e-05 0)
(0.000196816 -0.000199161 0)
(0.000431747 -0.000239379 0)
(0.000662478 -0.000219135 0)
(0.000829263 -0.000158557 0)
(0.000895304 -7.25806e-05 0)
(0.000835954 2.84631e-05 0)
(0.000635701 0.000137493 0)
(0.000286156 0.000249699 0)
(-0.00021588 0.000361814 0)
(-0.00086989 0.000471617 0)
(-0.00167269 0.000577596 0)
(-0.00261921 0.000678742 0)
(-0.00370307 0.000774397 0)
(-0.004917 0.000864162 0)
(-0.00625315 0.000947822 0)
(-0.00770336 0.0010253 0)
(-0.00925932 0.00109663 0)
(-0.0109127 0.0011619 0)
(-0.0126553 0.00122127 0)
(-0.0144789 0.00127492 0)
(-0.0163759 0.00132306 0)
(-0.0183385 0.00136591 0)
(-0.0203595 0.00140371 0)
(-0.0224317 0.00143667 0)
(-0.0245485 0.00146503 0)
(-0.0267033 0.001489 0)
(-0.0288899 0.00150877 0)
(-0.0311024 0.00152453 0)
(-0.033335 0.00153645 0)
(-0.0355821 0.00154468 0)
(-0.0378386 0.00154935 0)
(-0.0400992 0.00155058 0)
(-0.0423589 0.00154847 0)
(-0.0446129 0.0015431 0)
(-0.0468563 0.00153454 0)
(-0.0490845 0.00152284 0)
(-0.0512928 0.00150803 0)
(-0.0534767 0.00149014 0)
(-0.0556317 0.00146919 0)
(-0.0577531 0.00144517 0)
(-0.0598366 0.0014181 0)
(-0.0618775 0.00138795 0)
(-0.0638714 0.00135471 0)
(-0.0658138 0.00131838 0)
(-0.0677 0.00127892 0)
(-0.0695256 0.00123634 0)
(-0.0712859 0.00119062 0)
(-0.0729765 0.00114175 0)
(-0.0745927 0.00108972 0)
(-0.07613 0.00103456 0)
(-0.077584 0.000976274 0)
(-0.0789501 0.000914889 0)
(-0.080224 0.000850448 0)
(-0.0814012 0.000783004 0)
(-0.0824777 0.000712627 0)
(-0.0834493 0.000639401 0)
(-0.084312 0.000563427 0)
(-0.085062 0.000484825 0)
(-0.0856957 0.000403731 0)
(-0.0862098 0.000320302 0)
(-0.0866011 0.000234713 0)
(-0.0868668 0.000147157 0)
(-0.0870042 5.78498e-05 0)
(-0.0870111 -3.29765e-05 0)
(-0.0868856 -0.00012507 0)
(-0.0866263 -0.000218159 0)
(-0.086232 -0.000311956 0)
(-0.085702 -0.000406155 0)
(-0.085036 -0.000500436 0)
(-0.0842344 -0.000594462 0)
(-0.0832978 -0.000687884 0)
(-0.0822274 -0.00078034 0)
(-0.081025 -0.000871461 0)
(-0.0796929 -0.000960866 0)
(-0.0782338 -0.00104817 0)
(-0.0766512 -0.00113299 0)
(-0.074949 -0.00121493 0)
(-0.0731315 -0.0012936 0)
(-0.0712039 -0.00136861 0)
(-0.0691717 -0.00143959 0)
(-0.0670408 -0.00150618 0)
(-0.064818 -0.00156799 0)
(-0.0625103 -0.00162471 0)
(-0.0601252 -0.00167599 0)
(-0.0576707 -0.00172152 0)
(-0.0551553 -0.00176104 0)
(-0.0525876 -0.00179426 0)
(-0.0499769 -0.00182096 0)
(-0.0473326 -0.00184094 0)
(-0.0446643 -0.00185401 0)
(-0.0419821 -0.00186005 0)
(-0.0392959 -0.00185894 0)
(-0.0366159 -0.00185062 0)
(-0.0339525 -0.00183504 0)
(-0.031316 -0.00181223 0)
(-0.0287165 -0.00178222 0)
(-0.0261642 -0.00174509 0)
(-0.0236692 -0.00170098 0)
(-0.0212412 -0.00165003 0)
(-0.0188897 -0.00159247 0)
(-0.016624 -0.00152852 0)
(-0.0144529 -0.00145847 0)
(-0.0123847 -0.00138264 0)
(-0.0104274 -0.00130139 0)
(-0.00858836 -0.00121511 0)
(-0.00687426 -0.00112424 0)
(-0.0052912 -0.00102927 0)
(-0.00384455 -0.000930717 0)
(-0.00253885 -0.000829143 0)
(-0.0013778 -0.000725174 0)
(-0.000364111 -0.00061949 0)
(0.000500501 -0.000512835 0)
(0.00121549 -0.000406035 0)
(0.0017816 -0.000300025 0)
(0.002201 -0.000195872 0)
(0.00247751 -9.48065e-05 0)
(0.00261683 1.72374e-06 0)
(0.00262689 9.19677e-05 0)
(0.00251822 0.000173766 0)
(0.00230454 0.000244415 0)
(0.00200333 0.000300471 0)
(0.00163675 0.000337479 0)
(0.00123255 0.000349719 0)
(0.000824441 0.00033018 0)
(0.000452168 0.000270978 0)
(0.000166547 0.000166663 0)
(2.63738e-05 3.46485e-05 0)
(5.756e-05 -0.000206616 0)
(0.000239104 -0.000433835 0)
(0.000492253 -0.000492187 0)
(0.000710048 -0.000419548 0)
(0.000819242 -0.000253483 0)
(0.000772432 -2.42817e-05 0)
(0.000535839 0.000245129 0)
(8.68668e-05 0.000537865 0)
(-0.000587728 0.000841682 0)
(-0.00149397 0.00114777 0)
(-0.00263242 0.0014498 0)
(-0.00399955 0.00174329 0)
(-0.00558879 0.0020251 0)
(-0.00739139 0.00229305 0)
(-0.00939699 0.00254573 0)
(-0.0115942 0.00278227 0)
(-0.013971 0.00300223 0)
(-0.0165148 0.00320547 0)
(-0.0192131 0.00339208 0)
(-0.0220532 0.00356235 0)
(-0.0250227 0.00371665 0)
(-0.0281093 0.00385548 0)
(-0.0313012 0.00397935 0)
(-0.0345868 0.00408884 0)
(-0.037955 0.00418452 0)
(-0.0413948 0.00426695 0)
(-0.0448961 0.00433668 0)
(-0.0484486 0.00439425 0)
(-0.0520429 0.00444013 0)
(-0.0556696 0.00447479 0)
(-0.0593197 0.00449863 0)
(-0.0629846 0.00451202 0)
(-0.0666557 0.00451527 0)
(-0.070325 0.00450866 0)
(-0.0739843 0.00449243 0)
(-0.0776259 0.00446675 0)
(-0.081242 0.00443179 0)
(-0.084825 0.00438765 0)
(-0.0883674 0.00433442 0)
(-0.0918617 0.00427214 0)
(-0.0953006 0.00420085 0)
(-0.0986765 0.00412055 0)
(-0.101982 0.00403123 0)
(-0.10521 0.00393288 0)
(-0.108353 0.00382547 0)
(-0.111404 0.00370897 0)
(-0.114355 0.00358338 0)
(-0.117198 0.00344867 0)
(-0.119927 0.00330485 0)
(-0.122534 0.00315194 0)
(-0.125012 0.00298999 0)
(-0.127354 0.00281906 0)
(-0.129552 0.00263927 0)
(-0.1316 0.00245073 0)
(-0.13349 0.00225364 0)
(-0.135216 0.00204821 0)
(-0.136771 0.0018347 0)
(-0.13815 0.00161342 0)
(-0.139346 0.00138473 0)
(-0.140353 0.00114904 0)
(-0.141167 0.000906812 0)
(-0.141781 0.000658557 0)
(-0.142193 0.000404847 0)
(-0.142398 0.000146303 0)
(-0.142392 -0.000116398 0)
(-0.142173 -0.000382527 0)
(-0.141739 -0.000651306 0)
(-0.141087 -0.000921906 0)
(-0.140217 -0.00119345 0)
(-0.139129 -0.00146503 0)
(-0.137823 -0.00173567 0)
(-0.136301 -0.00200439 0)
(-0.134564 -0.00227016 0)
(-0.132616 -0.00253193 0)
(-0.13046 -0.00278862 0)
(-0.128101 -0.00303915 0)
(-0.125544 -0.00328241 0)
(-0.122796 -0.00351731 0)
(-0.119864 -0.00374276 0)
(-0.116756 -0.00395765 0)
(-0.113481 -0.00416094 0)
(-0.110049 -0.00435158 0)
(-0.10647 -0.00452855 0)
(-0.102755 -0.00469091 0)
(-0.0989162 -0.00483773 0)
(-0.094967 -0.00496814 0)
(-0.0909203 -0.00508136 0)
(-0.08679 -0.00517665 0)
(-0.0825908 -0.00525337 0)
(-0.0783374 -0.00531093 0)
(-0.0740454 -0.00534887 0)
(-0.0697304 -0.00536679 0)
(-0.0654083 -0.0053644 0)
(-0.0610954 -0.00534151 0)
(-0.0568078 -0.00529805 0)
(-0.0525618 -0.00523403 0)
(-0.0483737 -0.00514959 0)
(-0.0442593 -0.00504497 0)
(-0.0402346 -0.00492054 0)
(-0.036315 -0.00477677 0)
(-0.0325156 -0.00461424 0)
(-0.0288507 -0.00443365 0)
(-0.0253344 -0.00423582 0)
(-0.0219798 -0.00402166 0)
(-0.0187993 -0.00379222 0)
(-0.0158045 -0.00354866 0)
(-0.013006 -0.00329224 0)
(-0.0104132 -0.00302436 0)
(-0.00803436 -0.00274654 0)
(-0.00587656 -0.00246044 0)
(-0.00394538 -0.00216788 0)
(-0.00224489 -0.00187083 0)
(-0.000777482 -0.0015715 0)
(0.000456314 -0.00127229 0)
(0.00145801 -0.000975921 0)
(0.00223141 -0.000685461 0)
(0.00278291 -0.000404435 0)
(0.00312181 -0.000136931 0)
(0.00326076 0.000112229 0)
(0.00321629 0.00033727 0)
(0.00300942 0.000531201 0)
(0.00266633 0.000685515 0)
(0.0022192 0.000789875 0)
(0.00170689 0.000831989 0)
(0.00117471 0.000798045 0)
(0.000673705 0.000674254 0)
(0.000270295 0.000452254 0)
(5.14174e-05 0.000150108 0)
(5.63686e-05 -0.000340167 0)
(0.000220802 -0.000665309 0)
(0.000422354 -0.000710387 0)
(0.000545887 -0.000542935 0)
(0.000512236 -0.000220052 0)
(0.000268664 0.000211469 0)
(-0.000223439 0.0007148 0)
(-0.00099074 0.00126174 0)
(-0.00204958 0.00183103 0)
(-0.00340801 0.00240679 0)
(-0.00506751 0.00297724 0)
(-0.00702453 0.00353378 0)
(-0.00927155 0.00407015 0)
(-0.0117982 0.00458194 0)
(-0.0145918 0.00506613 0)
(-0.0176383 0.00552075 0)
(-0.0209225 0.00594466 0)
(-0.0244285 0.00633734 0)
(-0.0281402 0.00669875 0)
(-0.0320413 0.00702921 0)
(-0.0361155 0.00732929 0)
(-0.0403469 0.00759974 0)
(-0.0447197 0.00784146 0)
(-0.0492186 0.0080554 0)
(-0.0538288 0.00824257 0)
(-0.0585357 0.00840397 0)
(-0.0633255 0.00854059 0)
(-0.0681845 0.00865337 0)
(-0.0730997 0.00874321 0)
(-0.0780585 0.00881095 0)
(-0.0830487 0.00885732 0)
(-0.0880582 0.00888303 0)
(-0.0930756 0.00888865 0)
(-0.0980896 0.00887473 0)
(-0.103089 0.00884168 0)
(-0.108063 0.00878989 0)
(-0.113002 0.00871964 0)
(-0.117894 0.00863116 0)
(-0.122729 0.00852461 0)
(-0.127497 0.00840012 0)
(-0.132188 0.00825776 0)
(-0.136792 0.00809756 0)
(-0.141298 0.00791952 0)
(-0.145696 0.00772365 0)
(-0.149976 0.00750992 0)
(-0.154129 0.00727831 0)
(-0.158144 0.00702881 0)
(-0.16201 0.00676143 0)
(-0.165719 0.00647622 0)
(-0.16926 0.00617324 0)
(-0.172623 0.00585261 0)
(-0.175798 0.00551451 0)
(-0.178777 0.00515916 0)
(-0.181549 0.00478686 0)
(-0.184105 0.00439798 0)
(-0.186436 0.00399299 0)
(-0.188534 0.00357241 0)
(-0.190391 0.00313687 0)
(-0.191998 0.0026871 0)
(-0.193348 0.00222391 0)
(-0.194434 0.00174823 0)
(-0.195249 0.00126107 0)
(-0.195788 0.000763557 0)
(-0.196046 0.000256914 0)
(-0.196019 -0.000257531 0)
(-0.195702 -0.000778357 0)
(-0.195093 -0.00130404 0)
(-0.194189 -0.00183297 0)
(-0.19299 -0.00236345 0)
(-0.191496 -0.00289369 0)
(-0.189708 -0.00342184 0)
(-0.187627 -0.00394598 0)
(-0.185257 -0.00446412 0)
(-0.182601 -0.00497423 0)
(-0.179666 -0.00547425 0)
(-0.176456 -0.00596208 0)
(-0.17298 -0.00643561 0)
(-0.169247 -0.00689272 0)
(-0.165265 -0.00733132 0)
(-0.161047 -0.0077493 0)
(-0.156604 -0.00814465 0)
(-0.151948 -0.00851536 0)
(-0.147096 -0.0088595 0)
(-0.14206 -0.00917524 0)
(-0.136858 -0.00946081 0)
(-0.131507 -0.00971457 0)
(-0.126024 -0.00993501 0)
(-0.120429 -0.0101207 0)
(-0.11474 -0.0102705 0)
(-0.108977 -0.0103832 0)
(-0.103162 -0.010458 0)
(-0.0973147 -0.010494 0)
(-0.0914566 -0.0104909 0)
(-0.0856094 -0.0104481 0)
(-0.0797946 -0.0103656 0)
(-0.074034 -0.0102434 0)
(-0.0683491 -0.0100818 0)
(-0.0627613 -0.00988128 0)
(-0.0572916 -0.00964254 0)
(-0.0519604 -0.0093665 0)
(-0.046788 -0.00905431 0)
(-0.0417934 -0.00870734 0)
(-0.0369953 -0.00832716 0)
(-0.0324111 -0.0079156 0)
(-0.0280572 -0.00747468 0)
(-0.023949 -0.00700667 0)
(-0.0201004 -0.00651404 0)
(-0.0165239 -0.00599955 0)
(-0.0132304 -0.00546617 0)
(-0.010229 -0.00491716 0)
(-0.00752701 -0.00435609 0)
(-0.00512956 -0.00378685 0)
(-0.00303961 -0.00321371 0)
(-0.00125758 -0.00264142 0)
(0.000218805 -0.00207523 0)
(0.00139483 -0.00152108 0)
(0.00227917 -0.000985682 0)
(0.0028842 -0.000476771 0)
(0.00322651 -3.29331e-06 0)
(0.00332743 0.000424273 0)
(0.0032136 0.00079357 0)
(0.0029176 0.00109002 0)
(0.00247861 0.00129654 0)
(0.001943 0.00139363 0)
(0.00136365 0.00136017 0)
(0.000799533 0.00117549 0)
(0.000329757 0.000824642 0)
(6.52298e-05 0.00031316 0)
(4.64935e-05 -0.000451939 0)
(0.000161719 -0.00083402 0)
(0.00025797 -0.000820539 0)
(0.000223952 -0.000509431 0)
(-1.93975e-05 2.19559e-05 0)
(-0.000526639 0.000710261 0)
(-0.00133814 0.00150469 0)
(-0.0024822 0.00236543 0)
(-0.00397656 0.00326162 0)
(-0.00583025 0.0041696 0)
(-0.00804519 0.00507142 0)
(-0.0106176 0.00595357 0)
(-0.0135393 0.00680605 0)
(-0.0167985 0.0076216 0)
(-0.0203809 0.00839509 0)
(-0.0242701 0.00912306 0)
(-0.0284486 0.00980338 0)
(-0.0328976 0.0104349 0)
(-0.037598 0.0110172 0)
(-0.0425304 0.0115506 0)
(-0.0476753 0.0120358 0)
(-0.0530134 0.0124736 0)
(-0.0585257 0.0128655 0)
(-0.0641935 0.0132127 0)
(-0.0699985 0.0135167 0)
(-0.075923 0.013779 0)
(-0.0819498 0.0140011 0)
(-0.0880621 0.0141844 0)
(-0.0942437 0.0143302 0)
(-0.100479 0.0144399 0)
(-0.106752 0.0145146 0)
(-0.113048 0.0145553 0)
(-0.119353 0.014563 0)
(-0.125653 0.0145385 0)
(-0.131933 0.0144825 0)
(-0.13818 0.0143955 0)
(-0.14438 0.0142782 0)
(-0.150521 0.0141307 0)
(-0.156588 0.0139535 0)
(-0.16257 0.0137467 0)
(-0.168453 0.0135105 0)
(-0.174225 0.0132449 0)
(-0.179872 0.01295 0)
(-0.185382 0.0126259 0)
(-0.190742 0.0122724 0)
(-0.195939 0.0118897 0)
(-0.200962 0.0114777 0)
(-0.205797 0.0110366 0)
(-0.210432 0.0105664 0)
(-0.214854 0.0100673 0)
(-0.219052 0.0095395 0)
(-0.223013 0.00898336 0)
(-0.226725 0.0083993 0)
(-0.230177 0.00778783 0)
(-0.233357 0.00714961 0)
(-0.236255 0.00648541 0)
(-0.238859 0.00579614 0)
(-0.24116 0.00508287 0)
(-0.243148 0.00434678 0)
(-0.244814 0.00358925 0)
(-0.246149 0.00281179 0)
(-0.247146 0.00201608 0)
(-0.247797 0.00120396 0)
(-0.248097 0.000377439 0)
(-0.248041 -0.000461327 0)
(-0.247623 -0.00131002 0)
(-0.246842 -0.00216616 0)
(-0.245693 -0.00302715 0)
(-0.244177 -0.00389023 0)
(-0.242294 -0.00475252 0)
(-0.240045 -0.00561102 0)
(-0.237432 -0.00646264 0)
(-0.23446 -0.00730419 0)
(-0.231133 -0.00813239 0)
(-0.227459 -0.00894394 0)
(-0.223445 -0.00973546 0)
(-0.219101 -0.0105036 0)
(-0.214437 -0.0112449 0)
(-0.209467 -0.011956 0)
(-0.204202 -0.0126336 0)
(-0.198659 -0.0132745 0)
(-0.192852 -0.0138754 0)
(-0.186801 -0.0144333 0)
(-0.180524 -0.0149452 0)
(-0.17404 -0.0154084 0)
(-0.16737 -0.0158202 0)
(-0.160537 -0.0161781 0)
(-0.153564 -0.01648 0)
(-0.146474 -0.0167239 0)
(-0.139291 -0.0169081 0)
(-0.132042 -0.0170311 0)
(-0.124752 -0.0170918 0)
(-0.117447 -0.0170893 0)
(-0.110152 -0.017023 0)
(-0.102896 -0.0168927 0)
(-0.0957046 -0.0166986 0)
(-0.0886039 -0.0164411 0)
(-0.0816202 -0.0161209 0)
(-0.0747794 -0.0157393 0)
(-0.0681065 -0.0152977 0)
(-0.0616262 -0.014798 0)
(-0.055362 -0.0142424 0)
(-0.0493365 -0.0136335 0)
(-0.0435711 -0.0129743 0)
(-0.038086 -0.0122679 0)
(-0.0328997 -0.0115182 0)
(-0.0280294 -0.0107291 0)
(-0.0234901 -0.0099052 0)
(-0.019295 -0.00905123 0)
(-0.0154554 -0.00817254 0)
(-0.0119798 -0.00727492 0)
(-0.00887441 -0.00636469 0)
(-0.00614269 -0.00544879 0)
(-0.003785 -0.00453486 0)
(-0.00179841 -0.00363135 0)
(-0.000176378 -0.00274772 0)
(0.00109158 -0.00189458 0)
(0.00202035 -0.00108399 0)
(0.0026296 -0.000329728 0)
(0.0029443 0.000352385 0)
(0.00299523 0.000944074 0)
(0.00281952 0.00142427 0)
(0.00246124 0.00176889 0)
(0.00197188 0.00195096 0)
(0.00140974 0.00194145 0)
(0.000839953 0.0017112 0)
(0.000351252 0.00123473 0)
(7.03684e-05 0.00049744 0)
(3.17831e-05 -0.00052463 0)
(7.62301e-05 -0.000902169 0)
(2.7599e-05 -0.000773566 0)
(-0.00021235 -0.000263756 0)
(-0.000717613 0.000530548 0)
(-0.00154178 0.00153002 0)
(-0.00272458 0.00267035 0)
(-0.00429397 0.00390024 0)
(-0.00626758 0.00517922 0)
(-0.00865433 0.00647561 0)
(-0.0114559 0.00776486 0)
(-0.014668 0.00902817 0)
(-0.0182816 0.0102513 0)
(-0.0222837 0.0114238 0)
(-0.0266585 0.0125381 0)
(-0.0313877 0.0135887 0)
(-0.0364516 0.0145724 0)
(-0.0418293 0.0154871 0)
(-0.047499 0.0163319 0)
(-0.0534387 0.0171068 0)
(-0.0596261 0.0178126 0)
(-0.0660389 0.0184504 0)
(-0.0726552 0.0190218 0)
(-0.0794534 0.0195285 0)
(-0.0864122 0.0199724 0)
(-0.0935108 0.0203556 0)
(-0.100729 0.0206799 0)
(-0.108047 0.0209475 0)
(-0.115446 0.02116 0)
(-0.122907 0.0213194 0)
(-0.130412 0.0214271 0)
(-0.137942 0.0214847 0)
(-0.145481 0.0214934 0)
(-0.153013 0.0214545 0)
(-0.160519 0.0213689 0)
(-0.167983 0.0212375 0)
(-0.175391 0.0210609 0)
(-0.182725 0.0208398 0)
(-0.18997 0.0205744 0)
(-0.19711 0.0202653 0)
(-0.20413 0.0199125 0)
(-0.211015 0.0195163 0)
(-0.217749 0.0190767 0)
(-0.224317 0.0185939 0)
(-0.230704 0.0180679 0)
(-0.236895 0.0174987 0)
(-0.242875 0.0168865 0)
(-0.248628 0.0162314 0)
(-0.254141 0.0155337 0)
(-0.259398 0.0147935 0)
(-0.264385 0.0140114 0)
(-0.269088 0.0131879 0)
(-0.273492 0.0123236 0)
(-0.277585 0.0114193 0)
(-0.281352 0.0104761 0)
(-0.284782 0.00949524 0)
(-0.28786 0.00847797 0)
(-0.290577 0.00742593 0)
(-0.29292 0.00634094 0)
(-0.294878 0.00522501 0)
(-0.296443 0.00408041 0)
(-0.297606 0.00290962 0)
(-0.298357 0.00171535 0)
(-0.298691 0.000500571 0)
(-0.298601 -0.000731559 0)
(-0.298082 -0.00197764 0)
(-0.297132 -0.00323405 0)
(-0.295747 -0.00449699 0)
(-0.293926 -0.00576242 0)
(-0.291671 -0.00702617 0)
(-0.288982 -0.00828388 0)
(-0.285863 -0.00953103 0)
(-0.282319 -0.010763 0)
(-0.278356 -0.0119751 0)
(-0.273982 -0.0131624 0)
(-0.269207 -0.0143202 0)
(-0.264042 -0.0154434 0)
(-0.258499 -0.0165273 0)
(-0.252594 -0.017567 0)
(-0.246342 -0.0185575 0)
(-0.239761 -0.0194943 0)
(-0.232869 -0.0203728 0)
(-0.225688 -0.0211884 0)
(-0.218239 -0.021937 0)
(-0.210547 -0.0226146 0)
(-0.202634 -0.0232173 0)
(-0.194528 -0.0237417 0)
(-0.186255 -0.0241846 0)
(-0.177842 -0.0245432 0)
(-0.16932 -0.0248149 0)
(-0.160717 -0.0249978 0)
(-0.152062 -0.0250901 0)
(-0.143388 -0.0250906 0)
(-0.134724 -0.0249986 0)
(-0.126102 -0.0248137 0)
(-0.117553 -0.0245361 0)
(-0.109107 -0.0241665 0)
(-0.100795 -0.0237061 0)
(-0.0926472 -0.0231565 0)
(-0.0846929 -0.0225199 0)
(-0.0769608 -0.0217991 0)
(-0.0694782 -0.0209973 0)
(-0.0622716 -0.0201183 0)
(-0.055366 -0.0191663 0)
(-0.0487847 -0.0181463 0)
(-0.0425495 -0.0170635 0)
(-0.0366802 -0.0159239 0)
(-0.0311944 -0.014734 0)
(-0.0261074 -0.013501 0)
(-0.021432 -0.0122326 0)
(-0.0171784 -0.0109372 0)
(-0.0133537 -0.009624 0)
(-0.0099617 -0.00830317 0)
(-0.00700291 -0.00698572 0)
(-0.00447395 -0.00568383 0)
(-0.00236738 -0.004411 0)
(-0.000671295 -0.0031823 0)
(0.000631012 -0.00201461 0)
(0.0015615 -0.000927012 0)
(0.00214778 5.89038e-05 0)
(0.00242359 0.00091862 0)
(0.00242921 0.00162435 0)
(0.00221202 0.00214481 0)
(0.00182706 0.0024453 0)
(0.00133655 0.00248822 0)
(0.000810342 0.00223448 0)
(0.000343275 0.00164552 0)
(6.94794e-05 0.000684542 0)
(1.44493e-05 -0.000547761 0)
(-2.59699e-05 -0.00084323 0)
(-0.000247621 -0.000532633 0)
(-0.000729528 0.000236981 0)
(-0.00153683 0.00135161 0)
(-0.00271981 0.00271726 0)
(-0.00431563 0.00425692 0)
(-0.00635022 0.00590842 0)
(-0.00883978 0.00762194 0)
(-0.0117921 0.00935785 0)
(-0.015208 0.011085 0)
(-0.019082 0.012779 0)
(-0.0234041 0.0144214 0)
(-0.0281599 0.0159981 0)
(-0.0333322 0.0174986 0)
(-0.0389011 0.0189157 0)
(-0.044845 0.0202444 0)
(-0.0511408 0.0214816 0)
(-0.0577647 0.0226259 0)
(-0.0646922 0.0236769 0)
(-0.0718986 0.0246351 0)
(-0.0793591 0.025502 0)
(-0.0870492 0.0262791 0)
(-0.0949445 0.0269687 0)
(-0.103021 0.0275732 0)
(-0.111256 0.0280949 0)
(-0.119625 0.0285365 0)
(-0.128107 0.0289003 0)
(-0.136679 0.0291888 0)
(-0.14532 0.0294043 0)
(-0.15401 0.0295488 0)
(-0.162727 0.0296242 0)
(-0.171453 0.0296322 0)
(-0.180166 0.0295745 0)
(-0.188849 0.0294522 0)
(-0.197481 0.0292666 0)
(-0.206045 0.0290185 0)
(-0.214522 0.0287087 0)
(-0.222894 0.0283378 0)
(-0.231143 0.0279063 0)
(-0.23925 0.0274146 0)
(-0.247198 0.0268628 0)
(-0.25497 0.0262513 0)
(-0.262548 0.02558 0)
(-0.269914 0.0248493 0)
(-0.277051 0.0240592 0)
(-0.283942 0.02321 0)
(-0.290569 0.0223019 0)
(-0.296916 0.0213353 0)
(-0.302966 0.0203107 0)
(-0.308702 0.0192287 0)
(-0.314108 0.0180901 0)
(-0.319168 0.0168959 0)
(-0.323867 0.0156473 0)
(-0.328189 0.0143458 0)
(-0.332119 0.012993 0)
(-0.335645 0.011591 0)
(-0.338752 0.0101418 0)
(-0.341428 0.00864819 0)
(-0.343661 0.00711281 0)
(-0.345439 0.00553885 0)
(-0.346754 0.00392973 0)
(-0.347597 0.0022892 0)
(-0.347958 0.00062131 0)
(-0.347833 -0.00106958 0)
(-0.347215 -0.00277883 0)
(-0.346101 -0.00450149 0)
(-0.344489 -0.00623237 0)
(-0.342377 -0.00796598 0)
(-0.339766 -0.00969663 0)
(-0.336659 -0.0114184 0)
(-0.333059 -0.0131252 0)
(-0.328972 -0.0148107 0)
(-0.324405 -0.0164685 0)
(-0.319369 -0.0180921 0)
(-0.313873 -0.0196749 0)
(-0.307931 -0.0212102 0)
(-0.301557 -0.0226916 0)
(-0.294768 -0.0241124 0)
(-0.287583 -0.025466 0)
(-0.28002 -0.0267463 0)
(-0.272103 -0.0279469 0)
(-0.263854 -0.0290619 0)
(-0.255299 -0.0300856 0)
(-0.246463 -0.0310125 0)
(-0.237375 -0.0318377 0)
(-0.228064 -0.0325563 0)
(-0.218561 -0.0331641 0)
(-0.208897 -0.0336574 0)
(-0.199105 -0.0340327 0)
(-0.189218 -0.0342873 0)
(-0.17927 -0.034419 0)
(-0.169296 -0.0344261 0)
(-0.15933 -0.0343076 0)
(-0.149408 -0.034063 0)
(-0.139564 -0.0336928 0)
(-0.129834 -0.0331977 0)
(-0.120253 -0.0325794 0)
(-0.110853 -0.0318401 0)
(-0.101669 -0.030983 0)
(-0.092733 -0.0300116 0)
(-0.0840756 -0.0289305 0)
(-0.0757268 -0.0277448 0)
(-0.0677149 -0.0264602 0)
(-0.0600664 -0.0250835 0)
(-0.0528057 -0.0236219 0)
(-0.0459553 -0.0220836 0)
(-0.039535 -0.0204773 0)
(-0.0335623 -0.0188129 0)
(-0.0280515 -0.0171009 0)
(-0.0230141 -0.0153527 0)
(-0.0184581 -0.013581 0)
(-0.0143881 -0.0117992 0)
(-0.0108047 -0.0100223 0)
(-0.00770433 -0.00826664 0)
(-0.00507895 -0.00655019 0)
(-0.00291578 -0.00489284 0)
(-0.00119682 -0.00331669 0)
(0.000101424 -0.00184644 0)
(0.00100837 -0.000509693 0)
(0.00155973 0.000662575 0)
(0.00179788 0.00163571 0)
(0.00177238 0.0023711 0)
(0.00154057 0.00282605 0)
(0.00116732 0.00295397 0)
(0.000725714 0.00270501 0)
(0.000313269 0.00202672 0)
(6.45022e-05 0.000861028 0)
(-4.21378e-06 -0.00051491 0)
(-0.000138416 -0.000638947 0)
(-0.000552482 -7.07838e-05 0)
(-0.0013025 0.00102537 0)
(-0.00244205 0.00252091 0)
(-0.00401627 0.00430886 0)
(-0.00605813 0.0063008 0)
(-0.00859015 0.00842446 0)
(-0.0116259 0.0106212 0)
(-0.0151713 0.0128439 0)
(-0.0192252 0.0150549 0)
(-0.0237808 0.0172244 0)
(-0.0288266 0.0193294 0)
(-0.0343467 0.0213522 0)
(-0.0403224 0.0232794 0)
(-0.0467321 0.0251017 0)
(-0.0535525 0.0268123 0)
(-0.0607587 0.0284069 0)
(-0.0683248 0.0298834 0)
(-0.0762242 0.0312408 0)
(-0.0844301 0.0324796 0)
(-0.0929154 0.0336011 0)
(-0.101653 0.0346073 0)
(-0.110617 0.0355005 0)
(-0.11978 0.0362836 0)
(-0.129116 0.0369594 0)
(-0.138601 0.0375311 0)
(-0.148209 0.0380016 0)
(-0.157915 0.0383737 0)
(-0.167696 0.0386504 0)
(-0.177529 0.0388342 0)
(-0.18739 0.0389274 0)
(-0.197258 0.0389322 0)
(-0.207109 0.0388506 0)
(-0.216923 0.0386841 0)
(-0.226678 0.0384341 0)
(-0.236353 0.038102 0)
(-0.245927 0.0376887 0)
(-0.25538 0.0371949 0)
(-0.264691 0.0366213 0)
(-0.27384 0.0359685 0)
(-0.282807 0.0352367 0)
(-0.291572 0.0344264 0)
(-0.300116 0.0335377 0)
(-0.308418 0.032571 0)
(-0.316459 0.0315265 0)
(-0.324219 0.0304046 0)
(-0.33168 0.0292057 0)
(-0.338822 0.0279304 0)
(-0.345627 0.0265793 0)
(-0.352076 0.0251535 0)
(-0.358152 0.023654 0)
(-0.363835 0.0220823 0)
(-0.369109 0.02044 0)
(-0.373958 0.018729 0)
(-0.378364 0.0169517 0)
(-0.382313 0.0151107 0)
(-0.38579 0.0132088 0)
(-0.38878 0.0112496 0)
(-0.391271 0.00923678 0)
(-0.393252 0.00717436 0)
(-0.39471 0.00506692 0)
(-0.395637 0.00291936 0)
(-0.396023 0.000736988 0)
(-0.395863 -0.00147451 0)
(-0.395149 -0.00370907 0)
(-0.393879 -0.00596027 0)
(-0.39205 -0.00822134 0)
(-0.389661 -0.0104852 0)
(-0.386712 -0.0127444 0)
(-0.383207 -0.0149913 0)
(-0.379151 -0.017218 0)
(-0.374549 -0.0194163 0)
(-0.369411 -0.0215781 0)
(-0.363746 -0.0236948 0)
(-0.357568 -0.025758 0)
(-0.35089 -0.0277592 0)
(-0.343729 -0.0296898 0)
(-0.336104 -0.0315413 0)
(-0.328034 -0.0333054 0)
(-0.319543 -0.034974 0)
(-0.310654 -0.0365391 0)
(-0.301394 -0.0379929 0)
(-0.291789 -0.0393282 0)
(-0.28187 -0.040538 0)
(-0.271668 -0.0416158 0)
(-0.261214 -0.0425555 0)
(-0.250544 -0.0433516 0)
(-0.23969 -0.0439993 0)
(-0.228691 -0.0444943 0)
(-0.217582 -0.044833 0)
(-0.206402 -0.0450126 0)
(-0.195187 -0.0450309 0)
(-0.183979 -0.0448867 0)
(-0.172813 -0.0445794 0)
(-0.161731 -0.0441095 0)
(-0.15077 -0.0434781 0)
(-0.139969 -0.0426872 0)
(-0.129365 -0.04174 0)
(-0.118995 -0.0406404 0)
(-0.108895 -0.039393 0)
(-0.0990986 -0.0380037 0)
(-0.0896397 -0.0364791 0)
(-0.0805493 -0.0348269 0)
(-0.0718566 -0.0330555 0)
(-0.0635889 -0.0311746 0)
(-0.0557709 -0.0291946 0)
(-0.0484247 -0.0271271 0)
(-0.0415695 -0.0249846 0)
(-0.0352214 -0.0227808 0)
(-0.0293932 -0.0205305 0)
(-0.024094 -0.0182499 0)
(-0.0193289 -0.0159566 0)
(-0.015099 -0.0136695 0)
(-0.0114009 -0.0114096 0)
(-0.00822618 -0.00919951 0)
(-0.00556167 -0.00706437 0)
(-0.00338865 -0.00503174 0)
(-0.00168266 -0.0031321 0)
(-0.000413207 -0.00139928 0)
(0.000456587 0.000129212 0)
(0.000970357 0.00141176 0)
(0.00117895 0.00240233 0)
(0.00114097 0.00305013 0)
(0.000922771 0.00329941 0)
(0.000599103 0.00308948 0)
(0.000267247 0.00235437 0)
(5.68257e-05 0.00101718 0)
(-2.34595e-05 -0.000422366 0)
(-0.000256849 -0.000277393 0)
(-0.000876234 0.00063078 0)
(-0.00191276 0.00212519 0)
(-0.00340673 0.00406539 0)
(-0.00539672 0.00633343 0)
(-0.00791022 0.00883081 0)
(-0.0109652 0.0114763 0)
(-0.0145717 0.0142032 0)
(-0.0187326 0.0169572 0)
(-0.0234446 0.0196947 0)
(-0.0286987 0.0223806 0)
(-0.0344815 0.0249875 0)
(-0.0407756 0.0274941 0)
(-0.0475605 0.0298842 0)
(-0.0548129 0.0321461 0)
(-0.0625077 0.0342712 0)
(-0.0706183 0.0362541 0)
(-0.079117 0.0380916 0)
(-0.0879752 0.0397824 0)
(-0.0971641 0.0413265 0)
(-0.106655 0.0427252 0)
(-0.116418 0.0439807 0)
(-0.126424 0.0450955 0)
(-0.136646 0.0460729 0)
(-0.147055 0.0469162 0)
(-0.157623 0.047629 0)
(-0.168323 0.0482147 0)
(-0.179129 0.0486767 0)
(-0.190014 0.0490185 0)
(-0.200952 0.049243 0)
(-0.211918 0.049353 0)
(-0.222888 0.0493512 0)
(-0.233837 0.0492399 0)
(-0.244742 0.0490211 0)
(-0.255578 0.0486966 0)
(-0.266322 0.0482677 0)
(-0.276952 0.0477358 0)
(-0.287444 0.0471018 0)
(-0.297776 0.0463666 0)
(-0.307926 0.0455309 0)
(-0.317871 0.0445952 0)
(-0.327589 0.0435599 0)
(-0.337058 0.0424255 0)
(-0.346257 0.0411923 0)
(-0.355164 0.0398609 0)
(-0.363757 0.0384317 0)
(-0.372016 0.0369054 0)
(-0.37992 0.0352828 0)
(-0.387447 0.0335649 0)
(-0.394577 0.031753 0)
(-0.401292 0.0298486 0)
(-0.40757 0.0278536 0)
(-0.413394 0.0257702 0)
(-0.418745 0.0236008 0)
(-0.423605 0.0213485 0)
(-0.427958 0.0190167 0)
(-0.431787 0.0166092 0)
(-0.435078 0.0141302 0)
(-0.437816 0.0115846 0)
(-0.439988 0.0089775 0)
(-0.441583 0.00631473 0)
(-0.442591 0.00360245 0)
(-0.443001 0.000847363 0)
(-0.442808 -0.00194337 0)
(-0.442005 -0.00476213 0)
(-0.440587 -0.00760084 0)
(-0.438553 -0.010451 0)
(-0.435901 -0.0133038 0)
(-0.432633 -0.0161498 0)
(-0.428752 -0.0189796 0)
(-0.424263 -0.0217833 0)
(-0.419174 -0.0245507 0)
(-0.413494 -0.0272714 0)
(-0.407235 -0.0299351 0)
(-0.40041 -0.0325312 0)
(-0.393035 -0.0350489 0)
(-0.385128 -0.0374778 0)
(-0.37671 -0.0398072 0)
(-0.367802 -0.0420269 0)
(-0.35843 -0.0441266 0)
(-0.348619 -0.0460965 0)
(-0.338398 -0.047927 0)
(-0.327797 -0.0496091 0)
(-0.316848 -0.051134 0)
(-0.305585 -0.0524937 0)
(-0.294044 -0.0536807 0)
(-0.282261 -0.0546882 0)
(-0.270274 -0.0555101 0)
(-0.258122 -0.0561411 0)
(-0.245846 -0.0565769 0)
(-0.233486 -0.0568138 0)
(-0.221085 -0.0568493 0)
(-0.208684 -0.0566817 0)
(-0.196326 -0.0563105 0)
(-0.184052 -0.0557361 0)
(-0.171905 -0.05496 0)
(-0.159926 -0.0539849 0)
(-0.148157 -0.0528144 0)
(-0.136638 -0.0514535 0)
(-0.125407 -0.0499082 0)
(-0.114502 -0.0481857 0)
(-0.103959 -0.0462942 0)
(-0.0938121 -0.0442434 0)
(-0.0840933 -0.042044 0)
(-0.0748324 -0.0397078 0)
(-0.0660562 -0.0372479 0)
(-0.0577892 -0.0346789 0)
(-0.0500523 -0.0320163 0)