/*--------------------------------*- C++ -*----------------------------------*\
  =========                 |
  \\      /  F ield         | OpenFOAM: The Open Source CFD Toolbox
   \\    /   O peration     | Website:  https://openfoam.org
    \\  /    A nd           | Version:  9
     \\/     M anipulation  |
\*---------------------------------------------------------------------------*/
FoamFile
{
    format      ascii;
    class       volScalarField;
    location    "0.8";
    object      p;
}
// * * * * * * * * * * * * * * * * * * * * * * * * * * * * * * * * * * * * * //

dimensions      [0 2 -2 0 0 0 0];

internalField   nonuniform List<scalar> 
16384
(
3.80459e-05
0.00125221
0.000351941
-0.00321444
-0.00924725
-0.0174406
-0.0274425
-0.0388924
-0.0514525
-0.064818
-0.0787186
-0.0929172
-0.107207
-0.121409
-0.13537
-0.148956
-0.162054
-0.174569
-0.18642
-0.197539
-0.207867
-0.21736
-0.225976
-0.233686
-0.240462
-0.246285
-0.251137
-0.255006
-0.257881
-0.259755
-0.260622
-0.260476
-0.259316
-0.257138
-0.253941
-0.249723
-0.244485
-0.238228
-0.230951
-0.222657
-0.213348
-0.203028
-0.191703
-0.179377
-0.166058
-0.151756
-0.136482
-0.120249
-0.103073
-0.0849709
-0.0659648
-0.0460782
-0.025338
-0.0037747
0.0185779
0.0416824
0.0654974
0.089978
0.115075
0.140736
0.166904
0.193517
0.220512
0.247821
0.27537
0.303085
0.330888
0.358696
0.386425
0.413989
0.441299
0.468265
0.494796
0.520799
0.546182
0.570854
0.594723
0.6177
0.639697
0.660629
0.680413
0.698973
0.716233
0.732126
0.746588
0.759561
0.770996
0.780848
0.789081
0.795667
0.800587
0.803829
0.805391
0.80528
0.803513
0.800114
0.79512
0.788575
0.780534
0.77106
0.760226
0.748115
0.734818
0.720435
0.705074
0.688851
0.671892
0.654328
0.636299
0.61795
0.599435
0.580914
0.562552
0.544522
0.527001
0.510174
0.494229
0.479359
0.465761
0.453634
0.443174
0.434567
0.427981
0.423535
0.421263
0.421041
0.422497
0.424614
-0.00112055
7.19166e-05
-0.000962528
-0.004311
-0.00969458
-0.0169066
-0.0256994
-0.0357963
-0.0469239
-0.0588259
-0.0712674
-0.084037
-0.0969461
-0.109829
-0.122539
-0.134951
-0.146954
-0.158454
-0.169371
-0.179634
-0.189187
-0.19798
-0.205971
-0.213127
-0.219419
-0.224823
-0.229321
-0.232898
-0.235539
-0.237237
-0.237981
-0.237768
-0.23659
-0.234445
-0.231331
-0.227244
-0.222184
-0.216151
-0.209145
-0.201168
-0.192222
-0.182311
-0.171439
-0.159613
-0.146841
-0.13313
-0.118494
-0.102944
-0.0864962
-0.069169
-0.0509827
-0.0319606
-0.0121293
0.0084817
0.0298395
0.0519077
0.0746466
0.0980126
0.121959
0.146434
0.171384
0.19675
0.222471
0.248482
0.274714
0.301096
0.327552
0.354005
0.380376
0.406582
0.432539
0.458163
0.483366
0.508063
0.532166
0.555588
0.578245
0.600051
0.620925
0.640786
0.659559
0.67717
0.69355
0.708635
0.722366
0.734691
0.745563
0.754941
0.762793
0.769093
0.773824
0.776976
0.778549
0.778551
0.776999
0.773917
0.769341
0.763314
0.755888
0.747125
0.737096
0.725878
0.71356
0.700236
0.68601
0.670992
0.6553
0.639059
0.622401
0.605463
0.58839
0.571331
0.55444
0.537878
0.521808
0.506398
0.491818
0.478241
0.465839
0.45478
0.445225
0.43732
0.431185
0.426895
0.424442
0.423716
0.424614
0.426732
-0.000210476
0.00111096
7.25191e-05
-0.00313532
-0.00813295
-0.014738
-0.0227498
-0.0319384
-0.0420729
-0.0529328
-0.0643118
-0.0760207
-0.0878884
-0.0997615
-0.111504
-0.122996
-0.134133
-0.144823
-0.154988
-0.16456
-0.173479
-0.181698
-0.189174
-0.195871
-0.20176
-0.206816
-0.211018
-0.214349
-0.216795
-0.218345
-0.218989
-0.21872
-0.217532
-0.21542
-0.21238
-0.20841
-0.203508
-0.197673
-0.190905
-0.183206
-0.174577
-0.165023
-0.154547
-0.143155
-0.130855
-0.117656
-0.103569
-0.0886067
-0.0727848
-0.0561206
-0.0386344
-0.0203488
-0.00128978
0.018514
0.0390307
0.060225
0.0820583
0.104489
0.127471
0.150955
0.17489
0.199219
0.223883
0.24882
0.273963
0.299245
0.324593
0.349933
0.375189
0.400283
0.425135
0.449663
0.473785
0.497419
0.520481
0.542889
0.564563
0.585422
0.605387
0.624384
0.642339
0.659184
0.674854
0.689287
0.70243
0.714231
0.724647
0.733642
0.741183
0.747249
0.751823
0.754897
0.756473
0.756557
0.755167
0.752329
0.748077
0.742452
0.735506
0.727298
0.717897
0.707377
0.695823
0.683327
0.669986
0.655907
0.641203
0.625992
0.6104
0.594556
0.578599
0.562667
0.546907
0.531468
0.516501
0.502162
0.488606
0.475988
0.464463
0.454179
0.445273
0.437869
0.432067
0.427932
0.425461
0.4246
0.425507
0.428194
0.00336553
0.0044698
0.00327519
5.25834e-05
-0.00479158
-0.0110774
-0.0186241
-0.0272294
-0.0366917
-0.0468174
-0.0574234
-0.0683402
-0.0794127
-0.0905005
-0.101478
-0.112232
-0.122666
-0.132692
-0.142234
-0.151226
-0.159613
-0.167345
-0.174381
-0.180685
-0.186226
-0.190981
-0.194926
-0.198045
-0.200322
-0.201746
-0.202305
-0.201992
-0.2008
-0.198722
-0.195756
-0.191897
-0.187143
-0.181493
-0.174947
-0.167506
-0.15917
-0.149943
-0.13983
-0.128836
-0.116967
-0.104234
-0.0906456
-0.0762157
-0.0609585
-0.0448912
-0.0280332
-0.0104068
0.00796322
0.0270489
0.0468194
0.0672407
0.0882754
0.109883
0.13202
0.154638
0.177688
0.201114
0.224861
0.248868
0.273072
0.297406
0.321802
0.346189
0.370492
0.394638
0.418548
0.442145
0.46535
0.488084
0.510267
0.53182
0.552665
0.572726
0.591928
0.610199
0.627469
0.643672
0.658746
0.672634
0.685283
0.696645
0.706679
0.71535
0.722628
0.728494
0.732931
0.735934
0.737502
0.737646
0.736382
0.733734
0.729737
0.724432
0.717868
0.710104
0.701205
0.691244
0.680302
0.668467
0.655835
0.642508
0.628592
0.614202
0.599458
0.584483
0.569408
0.554365
0.539491
0.524926
0.510814
0.497296
0.484518
0.472621
0.461746
0.452026
0.443587
0.43654
0.430981
0.42698
0.424558
0.423716
0.424788
0.428002
0.0094384
0.00988695
0.00828034
0.00486223
-9.61913e-06
-0.00616305
-0.013433
-0.021641
-0.0306103
-0.0401708
-0.0501608
-0.0604292
-0.0708365
-0.0812555
-0.0915711
-0.10168
-0.111491
-0.120922
-0.129902
-0.138368
-0.146267
-0.153551
-0.16018
-0.166118
-0.171336
-0.175809
-0.179516
-0.182437
-0.184557
-0.185865
-0.186348
-0.185998
-0.184808
-0.182772
-0.179883
-0.17614
-0.171538
-0.166076
-0.159753
-0.15257
-0.144527
-0.135628
-0.125875
-0.115275
-0.103834
-0.0915602
-0.0784636
-0.0645565
-0.0498528
-0.034369
-0.0181238
-0.00113851
0.0165629
0.0349535
0.0540036
0.0736804
0.0939479
0.114767
0.136096
0.157888
0.180095
0.202666
0.225544
0.248673
0.271991
0.295435
0.318937
0.342431
0.365844
0.389104
0.412138
0.43487
0.457224
0.479125
0.500494
0.521258
0.54134
0.560667
0.579167
0.59677
0.613411
0.629025
0.643553
0.65694
0.669135
0.680094
0.689776
0.698149
0.705184
0.710863
0.71517
0.718101
0.719656
0.719845
0.718685
0.716201
0.712425
0.707398
0.701168
0.693791
0.685331
0.67586
0.665454
0.654201
0.642189
0.629519
0.616293
0.60262
0.588614
0.574394
0.560083
0.545807
0.531695
0.517878
0.50449
0.491665
0.479535
0.468233
0.457886
0.448618
0.440543
0.433767
0.428385
0.424475
0.422077
0.421231
0.422364
0.425801
0.0177286
0.0171746
0.014921
0.0111279
0.00605499
-0.000138924
-0.00730335
-0.0152821
-0.0239211
-0.0330713
-0.0425908
-0.0523456
-0.0622115
-0.0720741
-0.0818295
-0.0913835
-0.100652
-0.10956
-0.118041
-0.126037
-0.133496
-0.140373
-0.146631
-0.152236
-0.157158
-0.161373
-0.16486
-0.1676
-0.169579
-0.170783
-0.171201
-0.170824
-0.169644
-0.167655
-0.16485
-0.161226
-0.156779
-0.151507
-0.145409
-0.138485
-0.130734
-0.12216
-0.112765
-0.102555
-0.0915346
-0.0797123
-0.0670975
-0.0537015
-0.0395376
-0.0246213
-0.00897058
0.00739431
0.0244504
0.0421719
0.0605303
0.0794941
0.0990288
0.119097
0.139657
0.160667
0.182078
0.203841
0.225903
0.248207
0.270696
0.293308
0.315978
0.338641
0.361229
0.38367
0.405895
0.42783
0.449401
0.470536
0.491161
0.511202
0.530586
0.549243
0.567104
0.5841
0.600168
0.615247
0.62928
0.642212
0.653996
0.664588
0.67395
0.68205
0.688863
0.694368
0.698553
0.701413
0.702949
0.703172
0.702096
0.699748
0.69616
0.691369
0.685425
0.678381
0.6703
0.66125
0.651307
0.640553
0.629076
0.616971
0.604336
0.591278
0.577903
0.564327
0.550665
0.537037
0.523565
0.510372
0.497585
0.485327
0.473723
0.462894
0.45296
0.444034
0.436224
0.429631
0.424348
0.42046
0.41802
0.417092
0.418131
0.421482
0.0279121
0.0261054
0.023012
0.0186823
0.0132494
0.00685659
-0.00035945
-0.00826374
-0.016723
-0.0256078
-0.0347939
-0.0441638
-0.0536076
-0.0630237
-0.0723191
-0.0814091
-0.0902174
-0.0986757
-0.106723
-0.114306
-0.121377
-0.127894
-0.133821
-0.139126
-0.143782
-0.147766
-0.151056
-0.153636
-0.15549
-0.156606
-0.156972
-0.156578
-0.155417
-0.153482
-0.150767
-0.147268
-0.142979
-0.1379
-0.132027
-0.125361
-0.1179
-0.109648
-0.100606
-0.0907785
-0.0801708
-0.0687899
-0.0566446
-0.0437453
-0.0301044
-0.0157367
-0.000658846
0.0151097
0.0315472
0.0486292
0.0663283
0.0846145
0.103455
0.122813
0.142649
0.162923
0.183588
0.204596
0.225896
0.247435
0.269156
0.290998
0.312901
0.3348
0.35663
0.378322
0.399808
0.421017
0.441877
0.462319
0.482269
0.501657
0.520413
0.538468
0.555753
0.572205
0.587761
0.602361
0.61595
0.628476
0.639892
0.650157
0.659232
0.667088
0.673698
0.679046
0.683117
0.685909
0.687422
0.687666
0.686657
0.684419
0.680985
0.676392
0.670686
0.663921
0.656157
0.647461
0.637905
0.62757
0.616541
0.604909
0.592769
0.580222
0.567372
0.554327
0.541199
0.528101
0.515149
0.50246
0.49015
0.478337
0.467137
0.456664
0.447029
0.438337
0.430691
0.424187
0.418918
0.414969
0.412403
0.411294
0.41208
0.415081
0.0396553
0.0364215
0.0323377
0.0273347
0.0214052
0.0146764
0.00727236
-0.000692169
-0.00910353
-0.0178501
-0.0268245
-0.0359245
-0.0450541
-0.0541238
-0.0630513
-0.0717616
-0.0801864
-0.0882644
-0.0959409
-0.103167
-0.109899
-0.1161
-0.121736
-0.126777
-0.131198
-0.134978
-0.138096
-0.140536
-0.142284
-0.143327
-0.143654
-0.143256
-0.142125
-0.140253
-0.137635
-0.134265
-0.130139
-0.125255
-0.11961
-0.113201
-0.10603
-0.0980969
-0.0894033
-0.0799528
-0.06975
-0.058801
-0.0471136
-0.0346975
-0.021564
-0.00772665
0.00679866
0.0219939
0.0378383
0.0543089
0.0713796
0.0890217
0.107204
0.125891
0.145046
0.164628
0.184594
0.204898
0.22549
0.246318
0.267327
0.28846
0.309658
0.330857
0.351993
0.373002
0.393816
0.414366
0.434584
0.454399
0.473743
0.492545
0.510738
0.528254
0.545028
0.560995
0.576095
0.59027
0.603466
0.615632
0.626723
0.636696
0.645518
0.653156
0.659586
0.664792
0.66876
0.671486
0.672973
0.673229
0.67227
0.67012
0.66681
0.662378
0.656867
0.650332
0.642829
0.634423
0.625187
0.615197
0.604536
0.593291
0.581554
0.569424
0.556998
0.544382
0.531682
0.519005
0.506461
0.494161
0.482216
0.470735
0.459828
0.4496
0.440157
0.431598
0.424019
0.417513
0.412168
0.408071
0.405286
0.403891
0.404277
0.406714
0.0526429
0.0478653
0.0426783
0.0368914
0.0303516
0.023171
0.0154627
0.00732207
-0.00115557
-0.00987527
-0.0187451
-0.0276774
-0.0365891
-0.0454027
-0.0540465
-0.0624546
-0.0705672
-0.0783301
-0.0856947
-0.0926174
-0.0990598
-0.104988
-0.110371
-0.115183
-0.1194
-0.123003
-0.125973
-0.128296
-0.129956
-0.130944
-0.131247
-0.130858
-0.129767
-0.127968
-0.125455
-0.122222
-0.118265
-0.11358
-0.108164
-0.102015
-0.0951323
-0.0875162
-0.0791676
-0.0700891
-0.0602843
-0.0497586
-0.0385187
-0.0265731
-0.0139322
-0.000608444
0.0133836
0.028027
0.0433026
0.0591883
0.0756598
0.0926897
0.110248
0.128302
0.146815
0.165748
0.185061
0.204708
0.224641
0.244811
0.265164
0.285644
0.306194
0.326753
0.347258
0.367646
0.387852
0.407808
0.427447
0.446701
0.465502
0.483783
0.501475
0.518514
0.534834
0.550374
0.565073
0.578875
0.591726
0.603577
0.614383
0.624103
0.632702
0.640149
0.646422
0.651502
0.655377
0.658044
0.659503
0.659763
0.658841
0.656759
0.653547
0.649242
0.643889
0.637537
0.630244
0.622073
0.613093
0.603379
0.593011
0.582074
0.570658
0.558855
0.546763
0.53448
0.522108
0.50975
0.497511
0.485497
0.473811
0.462558
0.451839
0.441756
0.432406
0.423884
0.41628
0.409681
0.404173
0.39984
0.396744
0.394964
0.394824
0.39653
0.0665872
0.0601914
0.0538199
0.0471626
0.0399201
0.0321916
0.0240807
0.0156649
0.00702235
-0.00176741
-0.010627
-0.0194822
-0.0282625
-0.0369017
-0.0453383
-0.0535157
-0.0613822
-0.0688909
-0.0759996
-0.0826702
-0.0888691
-0.0945663
-0.0997351
-0.104352
-0.108397
-0.111851
-0.114698
-0.116925
-0.118519
-0.119469
-0.119765
-0.119398
-0.11836
-0.116645
-0.114246
-0.111157
-0.107374
-0.102893
-0.0977096
-0.0918222
-0.0852288
-0.0779288
-0.0699226
-0.0612118
-0.051799
-0.0416887
-0.0308864
-0.0193996
-0.00723745
0.00558878
0.0190658
0.0331781
0.0479077
0.0632341
0.0791342
0.0955824
0.11255
0.130006
0.147915
0.166241
0.184943
0.203979
0.223301
0.242863
0.262612
0.282493
0.302452
0.322428
0.342361
0.362189
0.381847
0.401271
0.420393
0.439148
0.457469
0.475288
0.49254
0.509161
0.525085
0.540252
0.554604
0.568083
0.580637
0.592217
0.602778
0.612281
0.620689
0.627974
0.634111
0.639083
0.642878
0.645491
0.646923
0.647183
0.646286
0.644255
0.641119
0.636914
0.631682
0.625473
0.618343
0.610354
0.601572
0.592071
0.581929
0.571227
0.560054
0.548497
0.536652
0.524613
0.512477
0.500345
0.488316
0.476489
0.464965
0.453842
0.443216
0.433182
0.423832
0.415256
0.407538
0.400763
0.395009
0.390354
0.386864
0.384609
0.383838
0.384686
0.0812278
0.0731695
0.0655574
0.0579642
0.0499457
0.0415907
0.0329952
0.0242204
0.0153286
0.00638491
-0.00254677
-0.0114049
-0.0201307
-0.0286689
-0.0369679
-0.0449799
-0.0526615
-0.0599728
-0.0668781
-0.0733451
-0.0793451
-0.0848524
-0.0898442
-0.0943003
-0.098203
-0.101536
-0.104287
-0.106441
-0.107989
-0.108919
-0.109224
-0.108895
-0.107923
-0.106303
-0.104028
-0.101092
-0.097491
-0.0932193
-0.0882733
-0.08265
-0.076347
-0.0693629
-0.0616972
-0.0533504
-0.0443245
-0.0346224
-0.0242488
-0.0132099
-0.0015136
0.0108302
0.0238095
0.0374101
0.0516155
0.0664068
0.0817623
0.0976578
0.114066
0.130958
0.1483
0.166057
0.18419
0.202658
0.221416
0.240418
0.259612
0.278947
0.298368
0.317817
0.337235
0.35656
0.375729
0.39468
0.413346
0.431661
0.449561
0.466978
0.483849
0.500107
0.515692
0.530541
0.544597
0.557802
0.570106
0.581458
0.591815
0.601136
0.609387
0.616537
0.622562
0.627444
0.631172
0.63374
0.635148
0.635406
0.634527
0.632534
0.629454
0.625322
0.620182
0.61408
0.607071
0.599216
0.59058
0.581234
0.571254
0.560721
0.549717
0.538332
0.526654
0.514776
0.502793
0.490799
0.478889
0.46716
0.455706
0.444622
0.433998
0.423924
0.414488
0.405773
0.397859
0.390826
0.384747
0.379695
0.375731
0.372925
0.371439
0.371337
0.0963297
0.0865865
0.0776968
0.0691193
0.0602679
0.0512235
0.0420762
0.0328723
0.0236596
0.01449
0.00541482
-0.0035163
-0.0122557
-0.0207585
-0.0289824
-0.0368886
-0.0444413
-0.051608
-0.0583591
-0.0646683
-0.0705118
-0.0758684
-0.0807193
-0.0850479
-0.0888392
-0.09208
-0.0947585
-0.0968639
-0.0983866
-0.0993175
-0.0996486
-0.0993721
-0.0984811
-0.0969687
-0.0948289
-0.0920556
-0.0886437
-0.084588
-0.0798843
-0.0745287
-0.0685182
-0.0618506
-0.0545244
-0.0465391
-0.0378956
-0.0285956
-0.0186427
-0.00804172
0.00320072
0.0150761
0.0275738
0.0406811
0.054383
0.068662
0.0834981
0.0988686
0.114748
0.131108
0.147918
0.165143
0.182747
0.200689
0.218926
0.237413
0.256102
0.27494
0.293875
0.31285
0.331806
0.350684
0.369422
0.387956
0.406223
0.424157
0.441693
0.458766
0.475311
0.491264
0.506563
0.521147
0.534957
0.547938
0.560037
0.571206
0.581398
0.590575
0.5987
0.605744
0.611682
0.616495
0.620172
0.622705
0.624096
0.624351
0.623485
0.621519
0.618479
0.614401
0.609325
0.603298
0.596373
0.588609
0.580071
0.570827
0.560953
0.550526
0.539627
0.528342
0.516759
0.504966
0.493055
0.481118
0.469245
0.457529
0.446061
0.434931
0.424225
0.414029
0.404424
0.395491
0.387305
0.379939
0.373462
0.367941
0.363437
0.360013
0.357746
0.356626
0.11168
0.100245
0.0900553
0.0804592
0.0707321
0.0609487
0.0511952
0.0415044
0.0319107
0.022454
0.0131738
0.00410862
-0.00470433
-0.0132299
-0.021435
-0.0292891
-0.0367642
-0.0438347
-0.0504775
-0.0566718
-0.0623991
-0.0676426
-0.0723877
-0.0766211
-0.0803311
-0.0835071
-0.0861395
-0.0882194
-0.0897387
-0.0906897
-0.0910652
-0.0908583
-0.0900624
-0.088671
-0.0866781
-0.0840776
-0.080864
-0.0770319
-0.0725764
-0.0674932
-0.0617783
-0.0554286
-0.0484418
-0.0408163
-0.0325517
-0.0236488
-0.0141095
-0.00393749
0.00686196
0.0182818
0.0303129
0.042944
0.0561618
0.0699501
0.0842907
0.0991624
0.114541
0.130401
0.146711
0.16344
0.180551
0.198007
0.215766
0.233784
0.252012
0.270401
0.288899
0.307451
0.325998
0.344482
0.362843
0.381016
0.39894
0.416548
0.433777
0.450562
0.466837
0.482539
0.497606
0.511976
0.525592
0.538396
0.550336
0.561364
0.571433
0.580502
0.588536
0.595504
0.601381
0.606147
0.60979
0.612301
0.613682
0.613939
0.613084
0.611138
0.608127
0.604085
0.59905
0.59307
0.586196
0.578486
0.570003
0.560815
0.550994
0.540616
0.529761
0.518513
0.506957
0.495178
0.483266
0.47131
0.459397
0.447617
0.436056
0.4248
0.413934
0.403537
0.393689
0.384463
0.375933
0.368165
0.361225
0.355172
0.350067
0.34597
0.34287
0.340685
0.127085
0.113962
0.102461
0.0918237
0.0811895
0.0706292
0.0602262
0.0500013
0.0399769
0.0301814
0.0206436
0.0113917
0.00245285
-0.0061469
-0.0143833
-0.0222339
-0.0296781
-0.036697
-0.0432739
-0.0493936
-0.0550425
-0.0602088
-0.0648815
-0.0690513
-0.0727094
-0.075848
-0.0784598
-0.0805379
-0.0820758
-0.0830671
-0.0835057
-0.0833854
-0.0827002
-0.0814439
-0.0796105
-0.077194
-0.0741885
-0.0705883
-0.066388
-0.0615825
-0.0561672
-0.050138
-0.0434915
-0.036225
-0.028337
-0.0198268
-0.0106952
-0.000944387
0.00942183
0.0203979
0.0319761
0.044147
0.0568986
0.0702165
0.0840839
0.0984814
0.113387
0.128775
0.144617
0.160883
0.177539
0.194547
0.211867
0.229456
0.247269
0.265255
0.283364
0.301541
0.31973
0.337872
0.355908
0.373774
0.391408
0.408746
0.425722
0.442273
0.458332
0.473837
0.488724
0.502933
0.516403
0.529079
0.540907
0.551837
0.561823
0.570824
0.578802
0.585725
0.591569
0.596312
0.59994
0.602446
0.603828
0.604092
0.60325
0.601321
0.59833
0.59431
0.589299
0.583343
0.576492
0.568802
0.560336
0.55116
0.541345
0.530966
0.520101
0.50883
0.497238
0.485408
0.473428
0.461383
0.449358
0.43744
0.425713
0.414259
0.403158
0.392489
0.382326
0.37274
0.363799
0.355566
0.348102
0.341461
0.335703
0.330887
0.326915
0.323631
0.142368
0.127568
0.114754
0.103061
0.0914975
0.0801319
0.069046
0.0582493
0.0477532
0.0375758
0.0277359
0.018252
0.00914189
0.000422722
-0.0078895
-0.01578
-0.0232354
-0.0302436
-0.0367938
-0.0428763
-0.0484827
-0.0536056
-0.0582384
-0.0623749
-0.0660099
-0.069138
-0.0717545
-0.0738545
-0.0754331
-0.0764853
-0.077006
-0.0769899
-0.0764315
-0.075325
-0.0736646
-0.0714441
-0.0686574
-0.0652984
-0.0613612
-0.0568399
-0.0517292
-0.0460239
-0.0397195
-0.0328124
-0.0252996
-0.0171791
-0.00845033
0.000885962
0.0108275
0.0213702
0.0325082
0.0442333
0.0565353
0.0694015
0.0828168
0.0967632
0.11122
0.126164
0.141568
0.157404
0.173638
0.190234
0.207154
0.224355
0.241794
0.259421
0.277186
0.295036
0.312916
0.330766
0.348528
0.366139
0.383537
0.400657
0.417434
0.433804
0.449701
0.465061
0.479821
0.493919
0.507294
0.51989
0.531652
0.542529
0.552474
0.561445
0.569403
0.576316
0.582156
0.586902
0.590538
0.593056
0.594453
0.594734
0.59391
0.591998
0.589023
0.585016
0.580015
0.574064
0.567211
0.559514
0.551031
0.54183
0.531979
0.521552
0.510625
0.499279
0.487594
0.475653
0.463541
0.451342
0.43914
0.427017
0.415055
0.403334
0.391931
0.380923
0.370379
0.360368
0.350955
0.342199
0.334156
0.326876
0.320421
0.314848
0.309973
0.305568
0.157365
0.140906
0.126782
0.114026
0.10152
0.0893286
0.0775341
0.066136
0.0551353
0.0445406
0.0343614
0.0246069
0.0152862
0.00640823
-0.00201907
-0.00998834
-0.0174931
-0.0245276
-0.0310871
-0.0371673
-0.0427648
-0.0478766
-0.0525001
-0.0566328
-0.0602724
-0.0634166
-0.0660629
-0.0682083
-0.0698497
-0.0709836
-0.071606
-0.0717122
-0.0712975
-0.0703563
-0.068883
-0.0668713
-0.0643149
-0.0612073
-0.057542
-0.0533124
-0.0485122
-0.0431353
-0.0371761
-0.0306297
-0.0234918
-0.0157592
-0.00742961
0.00149761
0.0110217
0.0211403
0.0318491
0.0431416
0.0550092
0.067441
0.0804235
0.0939404
0.107973
0.122498
0.137493
0.152928
0.168772
0.184991
0.201547
0.218399
0.235504
0.252814
0.27028
0.287849
0.305466
0.323073
0.340611
0.358017
0.37523
0.392184
0.408815
0.425057
0.440845
0.456112
0.470797
0.484834
0.498165
0.510729
0.522472
0.533342
0.543289
0.552271
0.560247
0.567184
0.573052
0.57783
0.581499
0.584051
0.58548
0.585791
0.584993
0.583102
0.580142
0.576143
0.571142
0.56518
0.558307
0.550578
0.542051
0.53279
0.522866
0.512349
0.501317
0.489845
0.478016
0.465909
0.453608
0.441195
0.428753
0.416362
0.404102
0.39205
0.380282
0.368871
0.357885
0.347391
0.337449
0.328117
0.319446
0.311482
0.30429
0.297927
0.292125
0.286586
0.171924
0.153827
0.138402
0.124583
0.111126
0.0980952
0.0855736
0.0735513
0.0620199
0.0509791
0.0404296
0.030372
0.0208073
0.0117363
0.00315936
-0.00492314
-0.0125114
-0.0196061
-0.026208
-0.0323182
-0.0379382
-0.0430693
-0.0477128
-0.0518699
-0.0555413
-0.0587274
-0.0614281
-0.0636424
-0.065369
-0.0666056
-0.0673494
-0.0675966
-0.0673428
-0.0665831
-0.0653118
-0.0635226
-0.0612089
-0.0583638
-0.0549802
-0.0510506
-0.046568
-0.0415251
-0.0359153
-0.0297321
-0.0229701
-0.0156246
-0.00769186
0.000830391
0.00994304
0.0196453
0.0299345
0.040806
0.052253
0.064266
0.0768334
0.0899407
0.10357
0.117702
0.132313
0.147376
0.162861
0.178735
0.194962
0.211502
0.228312
0.245345
0.262554
0.279886
0.297286
0.314696
0.332058
0.349309
0.366387
0.383227
0.399763
0.41593
0.43166
0.446887
0.461548
0.475577
0.488913
0.501495
0.513268
0.524176
0.534171
0.543205
0.55124
0.558238
0.564169
0.569009
0.572739
0.575348
0.57683
0.577187
0.576427
0.574565
0.571624
0.567632
0.562624
0.556642
0.549734
0.541953
0.533357
0.52401
0.513979
0.503337
0.492157
0.480516
0.468494
0.456171
0.443628
0.430946
0.418207
0.405489
0.392872
0.38043
0.368238
0.356366
0.344881
0.333847
0.323324
0.313366
0.304022
0.295335
0.287372
0.280192
0.273445
0.266761
0.185905
0.166192
0.149479
0.1346
0.120189
0.106312
0.0930505
0.0803873
0.068305
0.0567951
0.04585
0.0354623
0.025625
0.0163314
0.00757474
-0.000651536
-0.00835406
-0.0155394
-0.022214
-0.0283842
-0.0340561
-0.0392352
-0.0439267
-0.0481352
-0.0518646
-0.0551179
-0.0578972
-0.0602038
-0.0620377
-0.0633983
-0.0642835
-0.0646907
-0.0646159
-0.0640544
-0.0630007
-0.0614484
-0.0593907
-0.0568202
-0.053729
-0.050109
-0.0459521
-0.0412499
-0.0359946
-0.0301785
-0.0237947
-0.0168369
-0.00929995
-0.00117994
0.00752571
0.0168179
0.0266958
0.0371564
0.0481947
0.059803
0.0719715
0.0846872
0.0979345
0.111695
0.125946
0.140663
0.155818
0.171378
0.187309
0.203571
0.220123
0.23692
0.253912
0.271049
0.288276
0.305535
0.322768
0.339913
0.356906
0.373681
0.390174
0.406316
0.422041
0.43728
0.451969
0.466041
0.479434
0.492085
0.503935
0.51493
0.525018
0.53415
0.542285
0.549384
0.555414
0.560351
0.564173
0.566866
0.568425
0.568848
0.568142
0.566321
0.563405
0.559423
0.554407
0.548399
0.541446
0.533598
0.524914
0.515456
0.505292
0.494491
0.483127
0.471278
0.459021
0.446435
0.433601
0.4206
0.40751
0.394412
0.381382
0.368495
0.355823
0.343435
0.331398
0.319774
0.308621
0.297992
0.287933
0.278486
0.269721
0.261701
0.253992
0.246158
0.199174
0.177871
0.159885
0.143953
0.12859
0.113863
0.0998539
0.0865381
0.0738898
0.0618929
0.0505319
0.0397917
0.0296579
0.0201165
0.0111539
0.00275693
-0.00508722
-0.0123909
-0.019166
-0.0254238
-0.0311749
-0.0364291
-0.0411952
-0.0454812
-0.049294
-0.0526391
-0.0555209
-0.0579427
-0.0599063
-0.061412
-0.0624592
-0.0630457
-0.0631683
-0.0628224
-0.0620027
-0.0607027
-0.0589152
-0.0566322
-0.0538453
-0.0505454
-0.0467233
-0.0423698
-0.0374755
-0.0320315
-0.0260294
-0.0194614
-0.0123207
-0.00460166
0.00369994
0.0125868
0.0220599
0.032118
0.0427579
0.0539739
0.0657577
0.0780983
0.0909818
0.104391
0.118306
0.132702
0.147553
0.162829
0.178494
0.194512
0.210841
0.227438
0.244252
0.261235
0.278332
0.295485
0.312635
0.32972
0.346676
0.363438
0.379937
0.396106
0.411877
0.427182
0.441951
0.456119
0.46962
0.48239
0.49437
0.505501
0.515729
0.525006
0.533285
0.540527
0.546697
0.551767
0.555715
0.558524
0.560186
0.560698
0.560066
0.558302
0.555424
0.551459
0.546439
0.540403
0.533397
0.525472
0.516685
0.507098
0.496776
0.485789
0.47421
0.462117
0.449585
0.436696
0.423527
0.410159
0.396671
0.383141
0.369647
0.356262
0.343059
0.330105
0.317466
0.305204
0.293375
0.282032
0.27122
0.26098
0.251385
0.242502
0.233819
0.224831
0.211604
0.188739
0.169498
0.152523
0.136213
0.120636
0.105876
0.0919001
0.0786754
0.0661778
0.0543849
0.0432742
0.032824
0.0230133
0.0138221
0.00523071
-0.00277952
-0.0102266
-0.0171275
-0.0234984
-0.0293543
-0.034709
-0.039575
-0.0439635
-0.0478841
-0.0513451
-0.054353
-0.0569129
-0.0590282
-0.0607007
-0.0619304
-0.0627161
-0.063055
-0.0629428
-0.0623742
-0.0613426
-0.0598403
-0.0578588
-0.055389
-0.0524208
-0.0489441
-0.0449483
-0.0404229
-0.0353574
-0.029742
-0.0235672
-0.0168247
-0.00950697
-0.00160807
0.00687654
0.0159496
0.0256119
0.035862
0.0466961
0.0581078
0.0700877
0.0826237
0.0957005
0.109299
0.123398
0.137971
0.152988
0.168418
0.184223
0.200363
0.216794
0.233469
0.250337
0.267345
0.284435
0.301547
0.318619
0.335586
0.352382
0.368939
0.385186
0.401056
0.416477
0.43138
0.445697
0.459359
0.472302
0.484462
0.495781
0.506201
0.51567
0.52414
0.53157
0.537923
0.543167
0.547277
0.550236
0.552033
0.552663
0.552129
0.550441
0.547617
0.543681
0.538663
0.532602
0.525543
0.517535
0.508635
0.498902
0.488404
0.477208
0.465388
0.453019
0.440179
0.426947
0.413402
0.399625
0.385693
0.371686
0.35768
0.34375
0.329966
0.316398
0.30311
0.290164
0.277617
0.265521
0.25392
0.242854
0.232403
0.222639
0.212969
0.202824
0.223077
0.198678
0.178199
0.160194
0.142946
0.126522
0.111011
0.0963721
0.082564
0.0695563
0.0573193
0.0458235
0.0350405
0.0249425
0.0155031
0.00669658
-0.00150149
-0.00911445
-0.0161644
-0.022672
-0.0286566
-0.0341359
-0.0391257
-0.0436406
-0.0476928
-0.0512932
-0.0544503
-0.057171
-0.0594602
-0.0613209
-0.0627541
-0.0637592
-0.0643338
-0.0644741
-0.0641744
-0.0634281
-0.062227
-0.0605621
-0.0584233
-0.0557997
-0.05268
-0.0490524
-0.044905
-0.0402259
-0.0350036
-0.0292271
-0.0228863
-0.0159719
-0.00847612
-0.000392492
0.00828361
0.0175549
0.0274218
0.0378826
0.0489325
0.0605643
0.0727674
0.0855283
0.0988299
0.112651
0.126969
0.141754
0.156975
0.172596
0.188578
0.204879
0.22145
0.238242
0.2552
0.272269
0.289386
0.306491
0.323516
0.340396
0.35706
0.373437
0.389458
0.405049
0.420139
0.434658
0.448537
0.461706
0.474101
0.48566
0.496323
0.506036
0.514748
0.522415
0.528995
0.534457
0.538771
0.541919
0.543886
0.544665
0.544257
0.54267
0.53992
0.536028
0.531026
0.524948
0.517838
0.509746
0.500726
0.490838
0.480148
0.468725
0.45664
0.443969
0.43079
0.417182
0.403225
0.388999
0.374583
0.360055
0.345493
0.330972
0.316562
0.302335
0.288354
0.274681
0.261375
0.248488
0.236064
0.224143
0.212811
0.202146
0.191477
0.180169
0.233477
0.207572
0.185878
0.166856
0.14868
0.131417
0.115158
0.0998549
0.0854599
0.0719357
0.0592457
0.0473536
0.0362244
0.0258241
0.0161197
0.00707998
-0.00132524
-0.00912445
-0.0163446
-0.0230107
-0.0291463
-0.0347728
-0.0399095
-0.0445737
-0.0487807
-0.0525433
-0.0558724
-0.0587764
-0.0612616
-0.0633321
-0.06499
-0.0662352
-0.0670656
-0.0674776
-0.0674656
-0.0670224
-0.0661395
-0.0648072
-0.0630145
-0.0607496
-0.0579998
-0.0547522
-0.0509934
-0.04671
-0.041889
-0.0365175
-0.0305836
-0.0240763
-0.0169858
-0.0093038
-0.0010236
0.00785947
0.0173479
0.0274417
0.0381384
0.0494324
0.0613151
0.0737746
0.0867955
0.100359
0.114442
0.129017
0.144055
0.15952
0.175375
0.191576
0.208078
0.22483
0.241778
0.258866
0.276032
0.293214
0.310344
0.327355
0.344176
0.360734
0.376958
0.392773
0.408105
0.422882
0.437032
0.450484
0.46317
0.475024
0.485986
0.495997
0.505003
0.512957
0.519815
0.525542
0.530106
0.533484
0.53566
0.536624
0.536375
0.534918
0.532267
0.528441
0.52347
0.517388
0.510236
0.502062
0.492922
0.482873
0.471982
0.460316
0.447948
0.434953
0.421409
0.407395
0.392993
0.378282
0.363343
0.348255
0.333095
0.31794
0.302862
0.287932
0.273216
0.258776
0.244672
0.230958
0.217678
0.204872
0.192635
0.18105
0.169369
0.156892
0.242695
0.215313
0.192425
0.172403
0.153311
0.135218
0.118216
0.102252
0.087269
0.0732247
0.0600756
0.0477789
0.036293
0.0255777
0.0155942
0.00630536
-0.00232417
-0.010328
-0.0177376
-0.0245825
-0.03089
-0.0366851
-0.0419905
-0.0468263
-0.0512104
-0.0551578
-0.0586812
-0.0617908
-0.0644942
-0.0667966
-0.0687006
-0.0702069
-0.0713138
-0.0720176
-0.0723126
-0.0721913
-0.0716446
-0.0706621
-0.0692317
-0.0673407
-0.0649752
-0.0621209
-0.0587629
-0.0548862
-0.0504761
-0.045518
-0.0399982
-0.0339036
-0.0272227
-0.0199448
-0.0120615
-0.00356594
0.00554643
0.0152777
0.0256273
0.0365916
0.0481641
0.0603345
0.0730891
0.0864106
0.100278
0.114665
0.129543
0.144878
0.160632
0.176765
0.19323
0.209977
0.226952
0.244099
0.261355
0.278658
0.295939
0.313129
0.330157
0.346948
0.363428
0.379521
0.395151
0.410242
0.42472
0.438512
0.451547
0.463755
0.475073
0.485438
0.494795
0.503091
0.51028
0.516323
0.521185
0.524841
0.52727
0.52846
0.528407
0.527114
0.524591
0.520858
0.51594
0.509869
0.502688
0.494442
0.485184
0.474974
0.463875
0.451957
0.439291
0.425953
0.412022
0.397577
0.3827
0.367472
0.351975
0.336289
0.320493
0.304665
0.288879
0.273206
0.257714
0.242469
0.227529
0.212952
0.198784
0.185065
0.171898
0.159373
0.146667
0.133012
0.250624
0.221796
0.197737
0.176732
0.156738
0.137826
0.120089
0.103467
0.0878987
0.0733333
0.0597215
0.0470141
0.0351633
0.0241228
0.013848
0.00429644
-0.00457263
-0.0127976
-0.0204144
-0.0274568
-0.0339559
-0.03994
-0.0454351
-0.050464
-0.0550469
-0.0592011
-0.0629411
-0.0662786
-0.0692224
-0.0717785
-0.0739506
-0.0757397
-0.0771443
-0.0781606
-0.0787829
-0.0790031
-0.0788117
-0.0781971
-0.0771467
-0.0756463
-0.0736809
-0.0712346
-0.0682911
-0.0648338
-0.0608462
-0.0563118
-0.0512151
-0.045541
-0.0392757
-0.0324068
-0.0249235
-0.016817
-0.00808043
0.00129026
0.0112966
0.0219372
0.0332071
0.0450983
0.0575987
0.0706926
0.0843602
0.0985776
0.113317
0.128545
0.144226
0.160319
0.176777
0.193553
0.210591
0.227835
0.245222
0.262689
0.280166
0.297584
0.314867
0.331943
0.348732
0.365158
0.381142
0.396605
0.411471
0.425663
0.439106
0.451729
0.463462
0.474243
0.484009
0.492706
0.500283
0.506698
0.511912
0.515895
0.518626
0.520088
0.520274
0.519183
0.516824
0.513214
0.508375
0.502339
0.495146
0.48684
0.477474
0.467105
0.455799
0.443622
0.430649
0.416954
0.402617
0.387718
0.372341
0.356567
0.340481
0.324163
0.307695
0.291156
0.274623
0.258168
0.241863