/*--------------------------------*- C++ -*----------------------------------*\
  =========                 |
  \\      /  F ield         | OpenFOAM: The Open Source CFD Toolbox
   \\    /   O peration     | Website:  https://openfoam.org
    \\  /    A nd           | Version:  9
     \\/     M anipulation  |
\*---------------------------------------------------------------------------*/
FoamFile
{
    format      ascii;
    class       surfaceScalarField;
    location    "0.8";
    object      phi;
}
// * * * * * * * * * * * * * * * * * * * * * * * * * * * * * * * * * * * * * //

dimensions      [0 3 -1 0 0 0 0];

internalField   nonuniform List<scalar> 
32512
(
2.7153e-10
-2.79889e-10
1.1007e-09
-8.29178e-10
2.13045e-09
-1.02982e-09
3.08475e-09
-9.54356e-10
3.7921e-09
-7.07369e-10
4.14899e-09
-3.56871e-10
4.09602e-09
5.2998e-11
3.60309e-09
4.92964e-10
2.6594e-09
9.43717e-10
1.26697e-09
1.39247e-09
-5.63654e-10
1.83065e-09
-2.81617e-09
2.25254e-09
-5.47052e-09
2.65436e-09
-8.5042e-09
3.03369e-09
-1.18933e-08
3.38911e-09
-1.56133e-08
3.71992e-09
-1.96392e-08
4.02594e-09
-2.39466e-08
4.30736e-09
-2.85112e-08
4.56463e-09
-3.33097e-08
4.79841e-09
-3.83192e-08
5.00949e-09
-4.35179e-08
5.19877e-09
-4.88851e-08
5.36715e-09
-5.44007e-08
5.51557e-09
-6.00456e-08
5.64496e-09
-6.58018e-08
5.7562e-09
-7.1652e-08
5.85017e-09
-7.75796e-08
5.92767e-09
-8.35691e-08
5.98943e-09
-8.96052e-08
6.03613e-09
-9.56736e-08
6.06838e-09
-1.0176e-07
6.08671e-09
-1.07852e-07
6.09158e-09
-1.13935e-07
6.0834e-09
-1.19998e-07
6.06247e-09
-1.26027e-07
6.02906e-09
-1.3201e-07
5.98336e-09
-1.37936e-07
5.92553e-09
-1.43791e-07
5.85565e-09
-1.49565e-07
5.77377e-09
-1.55245e-07
5.67991e-09
-1.60819e-07
5.57405e-09
-1.66275e-07
5.45615e-09
-1.71601e-07
5.32615e-09
-1.76785e-07
5.18398e-09
-1.81815e-07
5.02957e-09
-1.86678e-07
4.86287e-09
-1.91362e-07
4.6838e-09
-1.95854e-07
4.49235e-09
-2.00142e-07
4.28849e-09
-2.04215e-07
4.07225e-09
-2.08058e-07
3.84369e-09
-2.11661e-07
3.60291e-09
-2.15011e-07
3.35007e-09
-2.18097e-07
3.08536e-09
-2.20906e-07
2.80905e-09
-2.23427e-07
2.52147e-09
-2.2565e-07
2.22301e-09
-2.27564e-07
1.91413e-09
-2.2916e-07
1.59538e-09
-2.30427e-07
1.26735e-09
-2.31358e-07
9.30746e-10
-2.31944e-07
5.86317e-10
-2.32179e-07
2.34905e-10
-2.32057e-07
-1.2257e-10
-2.31571e-07
-4.85117e-10
-2.3072e-07
-8.51668e-10
-2.29499e-07
-1.22109e-09
-2.27907e-07
-1.59217e-09
-2.25943e-07
-1.96364e-09
-2.23609e-07
-2.33418e-09
-2.20906e-07
-2.70241e-09
-2.17839e-07
-3.0669e-09
-2.14413e-07
-3.42618e-09
-2.10635e-07
-3.77875e-09
-2.06511e-07
-4.12309e-09
-2.02054e-07
-4.45766e-09
-1.97273e-07
-4.78091e-09
-1.92182e-07
-5.09131e-09
-1.86794e-07
-5.38732e-09
-1.81127e-07
-5.66743e-09
-1.75197e-07
-5.93019e-09
-1.69022e-07
-6.17417e-09
-1.62624e-07
-6.39801e-09
-1.56024e-07
-6.60039e-09
-1.49244e-07
-6.78011e-09
-1.42308e-07
-6.93603e-09
-1.35241e-07
-7.0671e-09
-1.28068e-07
-7.17242e-09
-1.20817e-07
-7.25115e-09
-1.13515e-07
-7.30261e-09
-1.06188e-07
-7.32625e-09
-9.88667e-08
-7.32163e-09
-9.15782e-08
-7.28849e-09
-8.43515e-08
-7.2267e-09
-7.72153e-08
-7.13626e-09
-7.01979e-08
-7.01736e-09
-6.33276e-08
-6.87032e-09
-5.6632e-08
-6.69563e-09
-5.01381e-08
-6.49393e-09
-4.3872e-08
-6.26601e-09
-3.78592e-08
-6.01284e-09
-3.21237e-08
-5.73552e-09
-2.66884e-08
-5.43531e-09
-2.15748e-08
-5.11361e-09
-1.68028e-08
-4.772e-09
-1.23906e-08
-4.4122e-09
-8.35449e-09
-4.03609e-09
-4.70881e-09
-3.64571e-09
-1.46555e-09
-3.24328e-09
1.36565e-09
-2.83121e-09
3.77784e-09
-2.41218e-09
5.76698e-09
-1.98911e-09
7.33224e-09
-1.56527e-09
8.47645e-09
-1.14425e-09
9.20658e-09
-7.3018e-10
9.53444e-09
-3.27888e-10
9.47751e-09
5.69124e-11
9.06014e-09
4.1734e-10
8.3152e-09
7.44907e-10
7.2864e-09
1.02881e-09
6.03155e-09
1.25494e-09
4.62706e-09
1.40456e-09
3.17413e-09
1.45294e-09
1.80557e-09
1.3685e-09
6.93642e-10
1.11188e-09
4.94098e-11
6.44148e-10
4.92846e-11
8.258e-10
-1.1057e-09
2.46031e-09
-2.46379e-09
4.29316e-09
-2.86275e-09
5.84354e-09
-2.50477e-09
6.75535e-09
-1.61916e-09
6.78348e-09
-3.84945e-10
5.76996e-09
1.06658e-09
3.62202e-09
2.64098e-09
2.94601e-10
4.27121e-09
-4.22272e-09
5.90985e-09
-9.91548e-09
7.52344e-09
-1.67514e-08
9.08848e-09
-2.46858e-08
1.05887e-08
-3.36653e-08
1.20131e-08
-4.36307e-08
1.33545e-08
-5.45196e-08
1.46088e-08
-6.62676e-08
1.57739e-08
-7.88096e-08
1.68493e-08
-9.2081e-08
1.7836e-08
-1.06018e-07
1.87354e-08
-1.20558e-07
1.95499e-08
-1.35642e-07
2.02823e-08
-1.5121e-07
2.09353e-08
-1.67207e-07
2.15123e-08
-1.83578e-07
2.20162e-08
-2.00272e-07
2.24502e-08
-2.17239e-07
2.28172e-08
-2.34432e-07
2.31202e-08
-2.51804e-07
2.33617e-08
-2.69312e-07
2.35442e-08
-2.86913e-07
2.36699e-08
-3.04567e-07
2.37407e-08
-3.22234e-07
2.37583e-08
-3.39875e-07
2.37243e-08
-3.57452e-07
2.36398e-08
-3.74929e-07
2.35058e-08
-3.92269e-07
2.33231e-08
-4.09436e-07
2.30923e-08
-4.26394e-07
2.28139e-08
-4.43108e-07
2.2488e-08
-4.59543e-07
2.21148e-08
-4.75663e-07
2.16943e-08
-4.91433e-07
2.12264e-08
-5.06818e-07
2.07111e-08
-5.21782e-07
2.01481e-08
-5.3629e-07
1.95374e-08
-5.50306e-07
1.88787e-08
-5.63794e-07
1.8172e-08
-5.76719e-07
1.74173e-08
-5.89045e-07
1.66146e-08
-6.00737e-07
1.57642e-08
-6.1176e-07
1.48664e-08
-6.22079e-07
1.39217e-08
-6.31659e-07
1.29308e-08
-6.40469e-07
1.18945e-08
-6.48474e-07
1.08142e-08
-6.55643e-07
9.69096e-09
-6.61947e-07
8.52656e-09
-6.67355e-07
7.32282e-09
-6.71842e-07
6.08188e-09
-6.75381e-07
4.80617e-09
-6.77948e-07
3.49839e-09
-6.79524e-07
2.16153e-09
-6.80088e-07
7.98875e-10
-6.79624e-07
-5.86023e-10
-6.7812e-07
-1.98932e-09
-6.75565e-07
-3.4069e-09
-6.71952e-07
-4.83438e-09
-6.67277e-07
-6.26714e-09
-6.6154e-07
-7.70033e-09
-6.54745e-07
-9.12888e-09
-6.469e-07
-1.05475e-08
-6.38016e-07
-1.19508e-08
-6.28109e-07
-1.33332e-08
-6.17199e-07
-1.46889e-08
-6.0531e-07
-1.60123e-08
-5.9247e-07
-1.72975e-08
-5.78712e-07
-1.85386e-08
-5.64074e-07
-1.97299e-08
-5.48596e-07
-2.08655e-08
-5.32323e-07
-2.19398e-08
-5.15306e-07
-2.29473e-08
-4.97598e-07
-2.38827e-08
-4.79255e-07
-2.47407e-08
-4.60339e-07
-2.55166e-08
-4.40913e-07
-2.62057e-08
-4.21045e-07
-2.68038e-08
-4.00805e-07
-2.73071e-08
-3.80266e-07
-2.7712e-08
-3.59501e-07
-2.80156e-08
-3.38589e-07
-2.82152e-08
-3.17606e-07
-2.83088e-08
-2.96633e-07
-2.82949e-08
-2.75749e-07
-2.81724e-08
-2.55035e-07
-2.79409e-08
-2.3457e-07
-2.76006e-08
-2.14436e-07
-2.7152e-08
-1.94709e-07
-2.65965e-08
-1.75469e-07
-2.5936e-08
-1.5679e-07
-2.5173e-08
-1.38745e-07
-2.43106e-08
-1.21406e-07
-2.33524e-08
-1.04839e-07
-2.23028e-08
-8.91072e-08
-2.11667e-08
-7.42714e-08
-1.99494e-08
-6.03862e-08
-1.86572e-08
-4.75019e-08
-1.72966e-08
-3.56629e-08
-1.58751e-08
-2.49081e-08
-1.44005e-08
-1.52695e-08
-1.28818e-08
-6.77237e-09
-1.13284e-08
5.66063e-10
-9.75068e-09
6.73709e-09
-8.16017e-09
1.17415e-08
-6.56964e-09
1.55906e-08
-4.99337e-09
1.83078e-08
-3.4475e-09
1.99304e-08
-1.95059e-09
2.05117e-08
-5.24346e-10
2.01237e-08
8.05389e-10
1.88612e-08
2.00752e-09
1.68459e-08
3.0441e-09
1.42326e-08
3.86817e-09
1.12159e-08
4.42138e-09
8.03656e-09
4.63245e-09
4.98598e-09
4.41904e-09
2.40253e-09
3.69525e-09
6.42634e-10
2.40434e-09
6.91864e-10
1.0328e-09
-2.13856e-09
2.87068e-09
-4.30178e-09
4.71957e-09
-4.71169e-09
5.99103e-09
-3.77623e-09
6.23685e-09
-1.86495e-09
5.13203e-09
7.19932e-10
2.45469e-09
3.74398e-09
-1.93463e-09
7.03036e-09
-8.11107e-09
1.04477e-08
-1.61004e-08
1.38992e-08
-2.5891e-08
1.73141e-08
-3.74434e-08
2.06409e-08
-5.06978e-08
2.38431e-08
-6.55794e-08
2.68947e-08
-8.20034e-08
2.97785e-08
-9.9878e-08
3.24834e-08
-1.19107e-07
3.50032e-08
-1.39593e-07
3.73353e-08
-1.61237e-07
3.94799e-08
-1.83941e-07
4.14395e-08
-2.07609e-07
4.32177e-08
-2.32146e-07
4.48194e-08
-2.57461e-07
4.62501e-08
-2.83465e-07
4.75159e-08
-3.10071e-07
4.86229e-08
-3.37198e-07
4.95772e-08
-3.64766e-07
5.03849e-08
-3.92697e-07
5.10517e-08
-4.20919e-07
5.1583e-08
-4.49358e-07
5.19839e-08
-4.77947e-07
5.22589e-08
-5.06619e-07
5.24121e-08
-5.35307e-07
5.24471e-08
-5.6395e-07
5.2367e-08
-5.92485e-07
5.21745e-08
-6.20851e-07
5.18716e-08
-6.48988e-07
5.14602e-08
-6.76837e-07
5.09415e-08
-7.0434e-07
5.03166e-08
-7.31438e-07
4.95861e-08
-7.58074e-07
4.87503e-08
-7.84189e-07
4.78095e-08
-8.09726e-07
4.67635e-08
-8.34627e-07
4.56125e-08
-8.58835e-07
4.4356e-08
-8.82292e-07
4.29941e-08
-9.0494e-07
4.15265e-08
-9.26721e-07
3.99533e-08
-9.47578e-07
3.82746e-08
-9.67454e-07
3.64907e-08
-9.86292e-07
3.46024e-08
-1.00404e-06
3.26106e-08
-1.02063e-06
3.05165e-08
-1.03602e-06
2.83219e-08
-1.05016e-06
2.6029e-08
-1.06298e-06
2.36402e-08
-1.07445e-06
2.11589e-08
-1.08451e-06
1.85886e-08
-1.09312e-06
1.59335e-08
-1.10024e-06
1.31986e-08
-1.10582e-06
1.03891e-08
-1.10984e-06
7.51115e-09
-1.11225e-06
4.5713e-09
-1.11302e-06
1.57679e-09
-1.11215e-06
-1.46453e-09
-1.10959e-06
-4.54424e-09
-1.10534e-06
-7.65334e-09
-1.0994e-06
-1.07823e-08
-1.09174e-06
-1.3921e-08
-1.08238e-06
-1.70588e-08
-1.07133e-06
-2.01849e-08
-1.05859e-06
-2.32876e-08
-1.04418e-06
-2.63554e-08
-1.02814e-06
-2.93761e-08
-1.01049e-06
-3.23374e-08
-9.91278e-07
-3.52268e-08
-9.70543e-07
-3.80319e-08
-9.48342e-07
-4.07399e-08
-9.24734e-07
-4.33384e-08
-8.99784e-07
-4.5815e-08
-8.73566e-07
-4.81575e-08
-8.46159e-07
-5.03541e-08
-8.17649e-07
-5.23932e-08
-7.88126e-07
-5.42639e-08
-7.57687e-07
-5.59557e-08
-7.26433e-07
-5.74588e-08
-6.94473e-07
-5.87642e-08
-6.61917e-07
-5.98635e-08
-6.28879e-07
-6.07493e-08
-5.9548e-07
-6.14152e-08
-5.61839e-07
-6.18558e-08
-5.28081e-07
-6.20665e-08
-4.94332e-07
-6.20442e-08
-4.60718e-07
-6.17868e-08
-4.27366e-07
-6.12933e-08
-3.94402e-07
-6.0564e-08
-3.61954e-07
-5.96005e-08
-3.30144e-07
-5.84058e-08
-2.99096e-07
-5.6984e-08
-2.68929e-07
-5.53406e-08
-2.39757e-07
-5.34822e-08
-2.11692e-07
-5.14171e-08
-1.84841e-07
-4.91546e-08
-1.59302e-07
-4.67054e-08
-1.3517e-07
-4.40815e-08
-1.12531e-07
-4.12963e-08
-9.14625e-08
-3.83646e-08
-7.20351e-08
-3.53024e-08
-5.43081e-08
-3.21275e-08
-3.83308e-08
-2.88591e-08
-2.4141e-08
-2.55183e-08
-1.17639e-08
-2.21279e-08
-1.2108e-09
-1.87134e-08
7.52209e-09
-1.53026e-08
1.44557e-08
-1.19269e-08
1.96298e-08
-8.62147e-09
2.31057e-08
-5.42644e-09
2.49692e-08
-2.38799e-09
2.53346e-08
4.39929e-10
2.43484e-08
2.99363e-09
2.21951e-08
5.19735e-09
1.91027e-08
6.96061e-09
1.53482e-08
8.17586e-09
1.12626e-08
8.71811e-09
7.23167e-09
8.44994e-09
3.69056e-09
7.23634e-09
1.10784e-09
4.98691e-09
1.79971e-09
9.64315e-10
-3.10293e-09
2.52789e-09
-5.86541e-09
3.80567e-09
-5.98946e-09
4.1504e-09
-4.12093e-09
3.06919e-09
-7.83715e-10
1.97278e-10
3.5919e-09
-4.72208e-09
8.6634e-09
-1.18565e-08
1.41648e-08
-2.13011e-08
1.98924e-08
-3.30933e-08
2.56914e-08
-4.72249e-08
3.14457e-08
-6.36528e-08
3.70688e-08
-8.23069e-08
4.24971e-08
-1.03097e-07
4.76851e-08
-1.2592e-07
5.26007e-08
-1.50659e-07
5.7223e-08
-1.77195e-07
6.15389e-08
-2.05402e-07
6.55421e-08
-2.35153e-07
6.92309e-08
-2.66321e-07
7.26074e-08
-2.9878e-07
7.56766e-08
-3.32406e-07
7.84454e-08
-3.67078e-07
8.0922e-08
-4.02677e-07
8.31156e-08
-4.3909e-07
8.50356e-08
-4.76205e-07
8.6692e-08
-5.13914e-07
8.80944e-08
-5.52114e-07
8.92519e-08
-5.90705e-07
9.01734e-08
-6.29588e-07
9.08672e-08
-6.6867e-07
9.13407e-08
-7.07859e-07
9.16008e-08
-7.47065e-07
9.16533e-08
-7.86201e-07
9.15036e-08
-8.25183e-07
9.1156e-08
-8.63926e-07
9.06143e-08
-9.02347e-07
8.98815e-08
-9.40365e-07
8.89598e-08
-9.779e-07
8.78512e-08
-1.01487e-06
8.65569e-08
-1.0512e-06
8.50775e-08
-1.0868e-06
8.34138e-08
-1.1216e-06
8.15657e-08
-1.15553e-06
7.95335e-08
-1.18849e-06
7.7317e-08
-1.22041e-06
7.49162e-08
-1.25121e-06
7.23312e-08
-1.28082e-06
6.95622e-08
-1.30916e-06
6.66098e-08
-1.33614e-06
6.3475e-08
-1.3617e-06
6.0159e-08
-1.38575e-06
5.66639e-08
-1.40823e-06
5.29922e-08
-1.42905e-06
4.91472e-08
-1.44816e-06
4.51327e-08
-1.46547e-06
4.09537e-08
-1.48093e-06
3.66157e-08
-1.49446e-06
3.21254e-08
-1.50602e-06
2.74903e-08
-1.51554e-06
2.27189e-08
-1.52297e-06
1.78208e-08
-1.52827e-06
1.28064e-08
-1.53138e-06
7.68748e-09
-1.53228e-06
2.47654e-09
-1.53094e-06
-2.81277e-09
-1.52731e-06
-8.1658e-09
-1.5214e-06
-1.3567e-08
-1.51318e-06
-1.89997e-08
-1.50266e-06
-2.44466e-08
-1.48983e-06
-2.98896e-08
-1.4747e-06
-3.53095e-08
-1.4573e-06
-4.06868e-08
-1.43766e-06
-4.60013e-08
-1.4158e-06
-5.12322e-08
-1.39178e-06
-5.63585e-08
-1.36565e-06
-6.13588e-08
-1.33747e-06
-6.62117e-08
-1.30731e-06
-7.08956e-08
-1.27526e-06
-7.53891e-08
-1.24141e-06
-7.96712e-08
-1.20584e-06
-8.3721e-08
-1.16868e-06
-8.75182e-08
-1.13003e-06
-9.10435e-08
-1.09001e-06
-9.42779e-08
-1.04877e-06
-9.72038e-08
-1.00642e-06
-9.98044e-08
-9.63119e-07
-1.02064e-07
-9.19013e-07
-1.0397e-07
-8.74255e-07
-1.05508e-07
-8.29003e-07
-1.06667e-07
-7.83419e-07
-1.07439e-07
-7.37669e-07
-1.07817e-07
-6.9192e-07
-1.07794e-07
-6.4634e-07
-1.07366e-07
-6.01099e-07
-1.06534e-07
-5.56367e-07
-1.05297e-07
-5.12309e-07
-1.03658e-07
-4.69094e-07
-1.01622e-07
-4.26881e-07
-9.91961e-08
-3.85832e-07
-9.63904e-08
-3.46098e-07
-9.32163e-08
-3.07827e-07
-8.96878e-08
-2.7116e-07
-8.58212e-08
-2.36231e-07
-8.16351e-08
-2.03162e-07
-7.71503e-08
-1.72068e-07
-7.23901e-08
-1.43053e-07
-6.73801e-08
-1.16207e-07
-6.21483e-08
-9.16091e-08
-5.67254e-08
-6.93233e-08
-5.1145e-08
-4.93981e-08
-4.54435e-08
-3.18651e-08
-3.96609e-08
-1.67375e-08
-3.3841e-08
-4.00807e-09
-2.80321e-08
6.35297e-09
-2.2288e-08
1.44002e-08
-1.66686e-08
2.02158e-08
-1.1242e-08
2.39132e-08
-6.08535e-09
2.56405e-08
-1.28742e-09
2.55852e-08
3.04885e-09
2.39789e-08
6.80369e-09
2.11019e-08
9.83772e-09
1.72879e-08
1.19901e-08
1.29272e-08
1.30789e-08
8.46928e-09
1.29078e-08
4.42339e-09
1.12822e-08
1.36491e-09
8.04525e-09
3.16462e-09
7.23499e-10
-3.82645e-09
1.65289e-09
-6.79482e-09
1.90301e-09
-6.23957e-09
8.14658e-10
-3.03256e-09
-2.11618e-09
2.14716e-09
-7.26651e-09
8.74228e-09
-1.49061e-08
1.6303e-08
-2.52144e-08
2.44732e-08
-3.82962e-08
3.29741e-08
-5.41941e-08
4.15894e-08
-7.29012e-08
5.01528e-08
-9.43705e-08
5.8538e-08
-1.18524e-07
6.66506e-08
-1.4526e-07
7.44208e-08
-1.74458e-07
8.1799e-08
-2.05986e-07
8.87509e-08
-2.39702e-07
9.52546e-08
-2.75458e-07
1.01298e-07
-3.13103e-07
1.06876e-07
-3.52486e-07
1.1199e-07
-3.93455e-07
1.16645e-07
-4.35859e-07
1.2085e-07
-4.79553e-07
1.24615e-07
-5.2439e-07
1.27953e-07
-5.70232e-07
1.30877e-07
-6.16941e-07
1.33401e-07
-6.64383e-07
1.35537e-07
-7.12431e-07
1.37299e-07
-7.60958e-07
1.38701e-07
-8.09844e-07
1.39753e-07
-8.58969e-07
1.40466e-07
-9.0822e-07
1.40851e-07
-9.57483e-07
1.40916e-07
-1.00665e-06
1.40669e-07
-1.05561e-06
1.40117e-07
-1.10426e-06
1.39264e-07
-1.15249e-06
1.38116e-07
-1.20021e-06
1.36676e-07
-1.2473e-06
1.34947e-07
-1.29368e-06
1.32931e-07
-1.33923e-06
1.30629e-07
-1.38386e-06
1.28043e-07
-1.42747e-06
1.25173e-07
-1.46995e-06
1.22019e-07
-1.51122e-06
1.18582e-07
-1.55116e-06
1.14862e-07
-1.58969e-06
1.1086e-07
-1.6267e-06
1.06575e-07
-1.66211e-06
1.02011e-07
-1.6958e-06
9.71671e-08
-1.72769e-06
9.20475e-08
-1.75768e-06
8.6655e-08
-1.78568e-06
8.0994e-08
-1.8116e-06
7.50698e-08
-1.83536e-06
6.88888e-08
-1.85686e-06
6.24587e-08
-1.87604e-06
5.57885e-08
-1.8928e-06
4.88884e-08
-1.90708e-06
4.17704e-08
-1.91881e-06
3.44477e-08
-1.92792e-06
2.69349e-08
-1.93436e-06
1.92484e-08
-1.93808e-06
1.14061e-08
-1.93903e-06
3.42722e-09
-1.93718e-06
-4.6673e-09
-1.93249e-06
-1.28551e-08
-1.92494e-06
-2.11125e-08
-1.91453e-06
-2.94142e-08
-1.90124e-06
-3.77338e-08
-1.88509e-06
-4.60438e-08
-1.86608e-06
-5.43152e-08
-1.84425e-06
-6.25185e-08
-1.81963e-06
-7.0623e-08
-1.79226e-06
-7.85975e-08
-1.76221e-06
-8.64102e-08
-1.72954e-06
-9.40289e-08
-1.69433e-06
-1.01421e-07
-1.65667e-06
-1.08555e-07
-1.61666e-06
-1.15397e-07
-1.57442e-06
-1.21917e-07
-1.53006e-06
-1.28083e-07
-1.48371e-06
-1.33865e-07
-1.43552e-06
-1.39232e-07
-1.38564e-06
-1.44158e-07
-1.33423e-06
-1.48616e-07
-1.28145e-06
-1.5258e-07
-1.22749e-06
-1.56028e-07
-1.17252e-06
-1.58938e-07
-1.11674e-06
-1.61292e-07
-1.06033e-06
-1.63073e-07
-1.0035e-06
-1.64267e-07
-9.46457e-07
-1.64864e-07
-8.89396e-07
-1.64855e-07
-8.32528e-07
-1.64234e-07
-7.76061e-07
-1.63001e-07
-7.20201e-07
-1.61156e-07
-6.65155e-07
-1.58704e-07
-6.11125e-07
-1.55652e-07
-5.58311e-07
-1.52011e-07
-5.06906e-07
-1.47795e-07
-4.57099e-07
-1.43024e-07
-4.09069e-07
-1.37717e-07
-3.6299e-07
-1.319e-07
-3.19023e-07
-1.25602e-07
-2.7732e-07
-1.18853e-07
-2.38021e-07
-1.1169e-07
-2.0125e-07
-1.04151e-07
-1.67118e-07
-9.62795e-08
-1.35722e-07
-8.81219e-08
-1.07138e-07
-7.97295e-08
-8.14233e-08
-7.11578e-08
-5.86164e-08
-6.24676e-08
-3.87319e-08
-5.37255e-08
-2.17595e-08
-4.50045e-08
-7.66246e-09
-3.63851e-08
3.62606e-09
-2.79572e-08
1.22053e-08
-1.98212e-08
1.82102e-08
-1.20902e-08
2.18153e-08
-4.89253e-09
2.32386e-08
1.62545e-09
2.27458e-08
7.29643e-09
2.06541e-08
1.19294e-08
1.73359e-08
1.53081e-08
1.32231e-08
1.71915e-08
8.81165e-09
1.73193e-08
4.66928e-09
1.54247e-08
1.45623e-09
1.12583e-08
4.62087e-09
3.75708e-10
-4.20217e-09
4.14957e-10
-6.83405e-09
-7.06339e-10
-5.11824e-09
-3.61951e-09
-1.19357e-10
-8.81216e-09
7.33985e-09
-1.66521e-08
1.65822e-08
-2.74046e-08
2.70556e-08
-4.12478e-08
3.83165e-08
-5.82855e-08
5.00119e-08
-7.85592e-08
6.18631e-08
-1.02059e-07
7.36523e-08
-1.28732e-07
8.52111e-08
-1.58493e-07
9.64112e-08
-1.91228e-07
1.07156e-07
-2.26806e-07
1.17377e-07
-2.65077e-07
1.27022e-07
-3.05883e-07
1.3606e-07
-3.49057e-07
1.44472e-07
-3.94427e-07
1.52247e-07
-4.41821e-07
1.59384e-07
-4.91064e-07
1.65889e-07
-5.41984e-07
1.7177e-07
-5.9441e-07
1.77042e-07
-6.48175e-07
1.81718e-07
-7.03115e-07
1.85817e-07
-7.59069e-07
1.89354e-07
-8.15881e-07
1.92349e-07
-8.73399e-07
1.94818e-07
-9.31475e-07
1.96777e-07
-9.89965e-07
1.98243e-07
-1.04873e-06
1.99229e-07
-1.10763e-06
1.9975e-07
-1.16653e-06
1.99817e-07
-1.2253e-06
1.9944e-07
-1.28381e-06
1.98629e-07
-1.34194e-06
1.9739e-07
-1.39955e-06
1.95732e-07
-1.45653e-06
1.93657e-07
-1.51276e-06
1.91171e-07
-1.56811e-06
1.88277e-07
-1.62245e-06
1.84977e-07
-1.67568e-06
1.81273e-07
-1.72768e-06
1.77165e-07
-1.77831e-06
1.72655e-07
-1.82747e-06
1.67743e-07
-1.87504e-06
1.62431e-07
-1.9209e-06
1.56719e-07
-1.96494e-06
1.5061e-07
-2.00703e-06
1.44105e-07
-2.04707e-06
1.37207e-07
-2.08494e-06
1.29921e-07
-2.12054e-06
1.22252e-07
-2.15375e-06
1.14206e-07
-2.18447e-06
1.05791e-07
-2.2126e-06
9.70172e-08
-2.23804e-06
8.78955e-08
-2.26069e-06
7.84389e-08
-2.28046e-06
6.86624e-08
-2.29727e-06
5.8583e-08
-2.31105e-06
4.82196e-08
-2.3217e-06
3.75932e-08
-2.32918e-06
2.67271e-08
-2.33342e-06
1.56464e-08
-2.33437e-06
4.37854e-09
-2.332e-06
-7.04701e-09
-2.32625e-06
-1.85988e-08
-2.31712e-06
-3.02434e-08
-2.30459e-06
-4.19455e-08
-2.28865e-06
-5.36681e-08
-2.26933e-06
-6.53725e-08
-2.24662e-06
-7.70184e-08
-2.22058e-06
-8.85644e-08
-2.19123e-06
-9.99678e-08
-2.15864e-06
-1.11185e-07
-2.12288e-06
-1.22172e-07
-2.08403e-06
-1.32884e-07
-2.04217e-06
-1.43275e-07
-1.99743e-06
-1.53301e-07
-1.94991e-06
-1.62918e-07
-1.89974e-06
-1.7208e-07
-1.84708e-06
-1.80745e-07
-1.79208e-06
-1.8887e-07
-1.73489e-06
-1.96415e-07
-1.67571e-06
-2.03341e-07
-1.61472e-06
-2.09612e-07
-1.55211e-06
-2.15191e-07
-1.48808e-06
-2.20048e-07
-1.42287e-06
-2.24154e-07
-1.35668e-06
-2.27482e-07
-1.28974e-06
-2.30009e-07
-1.22229e-06
-2.31718e-07
-1.15456e-06
-2.32591e-07
-1.0868e-06
-2.32619e-07
-1.01924e-06
-2.31794e-07
-9.52127e-07
-2.30114e-07
-8.85703e-07
-2.2758e-07
-8.20208e-07
-2.24198e-07
-7.5588e-07
-2.1998e-07
-6.9295e-07
-2.14941e-07
-6.31644e-07
-2.09101e-07
-5.72183e-07
-2.02485e-07
-5.14776e-07
-1.95124e-07
-4.59625e-07
-1.87052e-07
-4.06918e-07
-1.78309e-07
-3.56832e-07
-1.68939e-07
-3.09529e-07
-1.58993e-07
-2.65155e-07
-1.48525e-07
-2.23839e-07
-1.37595e-07
-1.85691e-07
-1.2627e-07
-1.50801e-07
-1.1462e-07
-1.19236e-07
-1.02723e-07
-9.10376e-08
-9.06656e-08
-6.62241e-08
-7.85389e-08
-4.47837e-08
-6.64449e-08
-2.66741e-08
-5.44948e-08
-1.18195e-08
-4.28119e-08
-1.08139e-10
-3.15326e-08
8.61133e-09
-2.08096e-08
1.45326e-08
-1.08137e-08
1.78955e-08
-1.73748e-09
1.89896e-08
6.20234e-09
1.81575e-08
1.27616e-08
1.57986e-08
1.76671e-08
1.23735e-08
2.06165e-08
8.41186e-09
2.1281e-08
4.52347e-09
1.93132e-08
1.42392e-09
1.43579e-08
6.04484e-09
-3.77192e-11
-4.16444e-09
-1.06443e-09
-5.80732e-09
-3.8081e-09
-2.37453e-09
-8.8429e-09
4.91549e-09
-1.6618e-08
1.5115e-08
-2.74744e-08
2.74387e-08
-4.1659e-08
4.12402e-08
-5.93365e-08
5.5994e-08
-8.06008e-08
7.12763e-08
-1.05485e-07
8.67477e-08
-1.33972e-07
1.02139e-07
-1.66001e-07
1.1724e-07
-2.01476e-07
1.31886e-07
-2.40275e-07
1.45955e-07
-2.82251e-07
1.59353e-07
-3.27243e-07
1.72014e-07
-3.75077e-07
1.83894e-07
-4.25568e-07
1.94963e-07
-4.78528e-07
2.05207e-07
-5.33765e-07
2.14621e-07
-5.91086e-07
2.23209e-07
-6.50297e-07
2.30982e-07
-7.11208e-07
2.37953e-07
-7.7363e-07
2.4414e-07
-8.37377e-07
2.49564e-07
-9.02269e-07
2.54246e-07
-9.68128e-07
2.58208e-07
-1.03478e-06
2.6147e-07
-1.10206e-06
2.64054e-07
-1.16979e-06
2.65978e-07
-1.23783e-06
2.67262e-07
-1.306e-06
2.67923e-07
-1.37416e-06
2.67975e-07
-1.44215e-06
2.67431e-07
-1.50982e-06
2.66303e-07
-1.57703e-06
2.64602e-07
-1.64364e-06
2.62336e-07
-1.70949e-06
2.5951e-07
-1.77445e-06
2.56132e-07
-1.83838e-06
2.52205e-07
-1.90113e-06
2.47732e-07
-1.96258e-06
2.42716e-07
-2.02257e-06
2.37159e-07
-2.08098e-06
2.31063e-07
-2.13767e-06
2.24429e-07
-2.19249e-06
2.17259e-07
-2.24533e-06
2.09555e-07
-2.29604e-06
2.0132e-07
-2.34449e-06
1.92558e-07
-2.39056e-06
1.83272e-07
-2.43411e-06
1.7347e-07
-2.47501e-06
1.63159e-07
-2.51316e-06
1.52348e-07
-2.54841e-06
1.41048e-07
-2.58067e-06
1.29273e-07
-2.60981e-06
1.17039e-07
-2.63574e-06
1.04362e-07
-2.65834e-06
9.12639e-08
-2.67752e-06
7.77674e-08
-2.6932e-06
6.38981e-08
-2.70529e-06
4.96842e-08
-2.71372e-06
3.51569e-08
-2.71842e-06
2.035e-08
-2.71935e-06
5.30004e-09
-2.71644e-06
-9.95363e-09
-2.70967e-06
-2.53691e-08
-2.69901e-06
-4.09021e-08
-2.68445e-06
-5.65056e-08
-2.66599e-06
-7.21306e-08
-2.64363e-06
-8.77259e-08
-2.61741e-06
-1.03238e-07
-2.58737e-06
-1.18613e-07
-2.55354e-06
-1.33794e-07
-2.516e-06
-1.48723e-07
-2.47483e-06
-1.63342e-07
-2.43012e-06
-1.77593e-07
-2.38198e-06
-1.91415e-07
-2.33053e-06
-2.04751e-07
-2.27591e-06
-2.1754e-07
-2.21827e-06
-2.29726e-07
-2.15776e-06
-2.41251e-07
-2.09457e-06
-2.52059e-07
-2.02889e-06
-2.62099e-07
-1.96091e-06
-2.71318e-07
-1.89085e-06
-2.79668e-07
-1.81894e-06
-2.87104e-07
-1.74541e-06
-2.93584e-07
-1.67049e-06
-2.99069e-07
-1.59445e-06
-3.03527e-07
-1.51753e-06
-3.06926e-07
-1.44e-06
-3.09243e-07
-1.36214e-06
-3.10457e-07
-1.2842e-06
-3.10554e-07
-1.20647e-06
-3.09525e-07
-1.12922e-06
-3.07366e-07
-1.05272e-06
-3.04079e-07
-9.77249e-07
-2.99673e-07
-9.03066e-07
-2.94163e-07
-8.30437e-07
-2.87569e-07
-7.5962e-07
-2.79918e-07
-6.90861e-07
-2.71244e-07
-6.24398e-07
-2.61586e-07
-5.6046e-07
-2.5099e-07
-4.99258e-07
-2.3951e-07
-4.40994e-07
-2.27204e-07
-3.85849e-07
-2.14138e-07
-3.3399e-07
-2.00385e-07
-2.85561e-07
-1.86024e-07
-2.40686e-07
-1.71144e-07
-1.99468e-07
-1.55838e-07
-1.61982e-07
-1.40209e-07
-1.28278e-07
-1.2437e-07
-9.83738e-08
-1.08443e-07
-7.22596e-08
-9.25591e-08
-4.98897e-08
-7.68647e-08
-3.11827e-08
-6.15189e-08
-1.60182e-08
-4.66972e-08
-4.23379e-09
-3.2594e-08
4.37738e-09
-1.94249e-08
1.00698e-08
-7.42994e-09
1.3149e-08
3.12315e-09
1.39742e-08
1.19363e-08
1.29627e-08
1.86786e-08
1.05942e-08
2.29849e-08
7.41996e-09
2.44553e-08
4.0749e-09
2.26583e-08
1.30162e-09
1.71313e-08
7.34651e-09
-4.90117e-10
-3.67431e-09
-2.70002e-09
-3.59738e-09
-7.24432e-09
2.1698e-09
-1.46207e-08
1.22919e-08
-2.52231e-08
2.57175e-08
-3.9352e-08
4.15676e-08
-5.72237e-08
5.91119e-08
-7.89799e-08
7.77502e-08
-1.04697e-07
9.69929e-08
-1.34392e-07
1.16443e-07
-1.68037e-07
1.35784e-07
-2.05558e-07
1.54761e-07
-2.46848e-07
1.73177e-07
-2.91774e-07
1.9088e-07
-3.40176e-07
2.07755e-07
-3.9188e-07
2.23718e-07
-4.46698e-07
2.38711e-07
-5.04429e-07
2.52695e-07
-5.64871e-07
2.65648e-07
-6.27813e-07
2.77563e-07
-6.93045e-07
2.88441e-07
-7.60357e-07
2.98293e-07
-8.29538e-07
3.07134e-07
-9.00381e-07
3.14984e-07
-9.72682e-07
3.21866e-07
-1.04624e-06
3.27805e-07
-1.12086e-06
3.32827e-07
-1.19635e-06
3.36956e-07
-1.27251e-06
3.40218e-07
-1.34917e-06
3.42637e-07
-1.42614e-06
3.44234e-07
-1.50325e-06
3.4503e-07
-1.58032e-06
3.45044e-07
-1.65718e-06
3.44291e-07
-1.73366e-06
3.42787e-07
-1.8096e-06
3.40543e-07
-1.88484e-06
3.3757e-07
-1.9592e-06
3.33877e-07
-2.03254e-06
3.2947e-07
-2.10469e-06
3.24356e-07
-2.1755e-06
3.18539e-07
-2.24481e-06
3.12023e-07
-2.31246e-06
3.0481e-07
-2.3783e-06
2.96903e-07
-2.44217e-06
2.88306e-07
-2.50394e-06
2.7902e-07
-2.56343e-06
2.69049e-07
-2.62051e-06
2.58398e-07
-2.67502e-06
2.47071e-07
-2.72682e-06
2.35076e-07
-2.77578e-06
2.22421e-07
-2.82173e-06
2.09117e-07
-2.86456e-06
1.95176e-07
-2.90413e-06
1.80613e-07
-2.9403e-06
1.65446e-07
-2.97296e-06
1.49695e-07
-3.00198e-06
1.33384e-07
-3.02725e-06
1.1654e-07
-3.04868e-06
9.91921e-08
-3.06615e-06
8.13739e-08
-3.07959e-06
6.31218e-08
-3.08891e-06
4.4476e-08
-3.09404e-06
2.54799e-08
-3.09492e-06
6.18043e-09
-3.0915e-06
-1.33722e-08
-3.08375e-06
-3.31245e-08
-3.07163e-06
-5.30197e-08
-3.05514e-06
-7.29982e-08
-3.03427e-06
-9.29976e-08
-3.00904e-06
-1.12953e-07
-2.97949e-06
-1.32796e-07
-2.94564e-06
-1.52458e-07
-2.90757e-06
-1.71867e-07
-2.86534e-06
-1.90951e-07
-2.81905e-06
-2.09636e-07
-2.76879e-06
-2.27846e-07
-2.7147e-06
-2.45508e-07
-2.6569e-06
-2.62547e-07
-2.59556e-06
-2.78888e-07
-2.53082e-06
-2.94458e-07
-2.46289e-06
-3.09185e-07
-2.39195e-06
-3.23e-07
-2.31821e-06
-3.35836e-07
-2.2419e-06
-3.47628e-07
-2.16325e-06
-3.58315e-07
-2.08252e-06
-3.6784e-07
-1.99995e-06
-3.76149e-07
-1.91582e-06
-3.83197e-07
-1.83041e-06
-3.88938e-07
-1.744e-06
-3.93336e-07
-1.65689e-06
-3.96361e-07
-1.56936e-06
-3.97986e-07
-1.48172e-06
-3.98193e-07
-1.39427e-06
-3.96971e-07
-1.30732e-06
-3.94316e-07
-1.22117e-06
-3.90231e-07
-1.13612e-06
-3.84726e-07
-1.05246e-06
-3.77821e-07
-9.70486e-07
-3.69541e-07
-8.90484e-07
-3.59921e-07
-8.12726e-07
-3.49002e-07
-7.37475e-07
-3.36837e-07
-6.64983e-07
-3.23483e-07
-5.95486e-07
-3.09007e-07
-5.29206e-07
-2.93484e-07
-4.66344e-07
-2.76999e-07
-4.07084e-07
-2.59645e-07
-3.51588e-07
-2.41521e-07
-2.99993e-07
-2.22739e-07
-2.52413e-07
-2.03418e-07
-2.08932e-07
-1.8369e-07
-1.69606e-07
-1.63696e-07
-1.3446e-07
-1.43589e-07
-1.03483e-07
-1.23536e-07
-7.66308e-08
-1.03717e-07
-5.38183e-08
-8.43314e-08
-3.49204e-08
-6.55952e-08
-1.97684e-08
-4.7746e-08
-8.14753e-09
-3.10457e-08
2.05704e-10
-1.57831e-08
5.60607e-09
-2.27724e-09
8.42285e-09
9.1195e-09
9.08335e-09
1.80181e-08
8.07794e-09
2.39902e-08
5.96825e-09
2.6565e-08
3.39868e-09
2.52278e-08
1.11531e-09
1.94146e-08
8.46185e-09
-9.64458e-10
-2.70984e-09
-4.43291e-09
-1.28885e-10
-1.09004e-08
8.63732e-09
-2.07767e-08
2.21682e-08
-3.43891e-08
3.93299e-08
-5.19865e-08
5.91651e-08
-7.37454e-08
8.08708e-08
-9.97759e-08
1.03781e-07
-1.30129e-07
1.27346e-07
-1.64802e-07
1.51117e-07
-2.03749e-07
1.7473e-07
-2.4688e-07
1.97892e-07
-2.94077e-07
2.20373e-07
-3.4519e-07
2.41993e-07
-4.00048e-07
2.62614e-07
-4.58463e-07
2.82134e-07
-5.20233e-07
3.0048e-07
-5.85145e-07
3.17606e-07
-6.52978e-07
3.33482e-07
-7.2351e-07
3.48095e-07
-7.96513e-07
3.61445e-07
-8.71761e-07
3.73541e-07
-9.49026e-07
3.84399e-07
-1.02809e-06
3.94043e-07
-1.10872e-06
4.02497e-07
-1.1907e-06
4.0979e-07
-1.27382e-06
4.1595e-07
-1.35788e-06
4.21008e-07
-1.44265e-06
4.24992e-07
-1.52794e-06
4.27929e-07
-1.61355e-06
4.29846e-07
-1.69929e-06
4.30767e-07
-1.78496e-06
4.30713e-07
-1.87037e-06
4.29704e-07
-1.95534e-06
4.27758e-07
-2.03969e-06
4.24889e-07
-2.12323e-06
4.2111e-07
-2.20578e-06
4.16431e-07
-2.28718e-06
4.10862e-07
-2.36723e-06
4.04409e-07
-2.44577e-06
3.97079e-07
-2.52262e-06
3.88876e-07
-2.59762e-06
3.79805e-07
-2.67058e-06
3.69869e-07
-2.74135e-06
3.59073e-07
-2.80975e-06
3.47421e-07
-2.87562e-06
3.34917e-07
-2.93879e-06
3.21568e-07
-2.9991e-06
3.07382e-07
-3.05639e-06
2.92367e-07
-3.1105e-06
2.76535e-07
-3.16128e-06
2.599e-07
-3.20859e-06
2.42478e-07
-3.25226e-06
2.24289e-07
-3.29217e-06
2.05355e-07
-3.32818e-06
1.85703e-07
-3.36016e-06
1.65362e-07
-3.38798e-06
1.44366e-07
-3.41154e-06
1.22753e-07
-3.43073e-06
1.00564e-07
-3.44546e-06
7.78446e-08
-3.45563e-06
5.46453e-08
-3.46117e-06
3.102e-08
-3.46201e-06
7.02693e-09
-3.45811e-06
-1.72716e-08
-3.44943e-06
-4.18094e-08
-3.43593e-06
-6.65164e-08
-3.41761e-06
-9.13189e-08
-3.39447e-06
-1.1614e-07
-3.36652e-06
-1.40899e-07
-3.33381e-06
-1.65513e-07
-3.29637e-06
-1.89897e-07
-3.25427e-06
-2.13963e-07
-3.2076e-06
-2.37621e-07
-3.15645e-06
-2.60782e-07
-3.10095e-06
-2.83353e-07
-3.04121e-06
-3.05242e-07
-2.9774e-06
-3.26359e-07
-2.90968e-06
-3.46611e-07
-2.83823e-06
-3.65911e-07
-2.76324e-06
-3.84169e-07
-2.68494e-06
-4.013e-07
-2.60356e-06
-4.17223e-07
-2.51933e-06
-4.31858e-07
-2.43251e-06
-4.45131e-07
-2.34338e-06
-4.56971e-07
-2.25221e-06
-4.67315e-07
-2.1593e-06
-4.76104e-07
-2.06496e-06
-4.83285e-07
-1.96948e-06
-4.88812e-07
-1.87319e-06
-4.92648e-07
-1.77642e-06
-4.94762e-07
-1.67948e-06
-4.95131e-07
-1.58271e-06
-4.93741e-07
-1.48644e-06
-4.90588e-07
-1.39099e-06
-4.85675e-07
-1.2967e-06
-4.79016e-07
-1.20389e-06
-4.70633e-07
-1.11287e-06
-4.60558e-07
-1.02396e-06
-4.48834e-07
-9.3745e-07
-4.35514e-07
-8.53628e-07
-4.20658e-07
-7.72771e-07
-4.0434e-07
-6.95135e-07
-3.86642e-07
-6.20962e-07
-3.67657e-07
-5.50475e-07
-3.47487e-07
-4.83872e-07
-3.26247e-07
-4.21331e-07
-3.04062e-07
-3.63004e-07
-2.81066e-07
-3.09015e-07
-2.57407e-07
-2.59459e-07
-2.33246e-07
-2.144e-07
-2.08756e-07
-1.73867e-07
-1.84122e-07
-1.37855e-07
-1.59548e-07
-1.06319e-07
-1.35252e-07
-7.91766e-08
-1.11474e-07
-5.62998e-08
-8.84719e-08
-3.7518e-08
-6.65279e-08
-2.26128e-08
-4.59509e-08
-1.1317e-08
-2.7079e-08
-3.31145e-09
-1.02827e-08
1.77695e-09
4.03109e-09
4.37917e-09
1.54159e-08
4.98834e-09
2.3381e-08
4.16666e-09
2.73867e-08
2.55456e-09
2.68398e-08
8.84121e-10
2.10851e-08
9.34596e-09
-1.44986e-09
-1.25997e-09
-6.22256e-09
4.64385e-09
-1.46939e-08
1.71086e-08
-2.718e-08
3.46544e-08
-4.39342e-08
5.6084e-08
-6.51462e-08
8.03771e-08
-9.09449e-08
1.06669e-07
-1.21402e-07
1.34238e-07
-1.56538e-07
1.62481e-07
-1.96324e-07
1.90903e-07
-2.40691e-07
2.19097e-07
-2.89532e-07
2.46734e-07
-3.42712e-07
2.73553e-07
-4.00065e-07
2.99346e-07
-4.61407e-07
3.23956e-07
-5.26536e-07
3.47262e-07
-5.95234e-07
3.69179e-07
-6.67276e-07
3.89648e-07
-7.42428e-07
4.08634e-07
-8.20451e-07
4.26118e-07