/*--------------------------------*- C++ -*----------------------------------*\
  =========                 |
  \\      /  F ield         | OpenFOAM: The Open Source CFD Toolbox
   \\    /   O peration     | Website:  https://openfoam.org
    \\  /    A nd           | Version:  9
     \\/     M anipulation  |
\*---------------------------------------------------------------------------*/
FoamFile
{
    format      ascii;
    class       volVectorField;
    location    "0.8";
    object      U;
}
// * * * * * * * * * * * * * * * * * * * * * * * * * * * * * * * * * * * * * //

dimensions      [0 1 -1 0 0 0 0];

internalField   nonuniform List<vector> 
16384
(
(1.29551e-05 -1.35176e-05 0)
(8.07745e-05 -4.46831e-05 0)
(0.000205313 -5.76521e-05 0)
(0.000338524 -5.58697e-05 0)
(0.000448784 -4.54744e-05 0)
(0.000519244 -3.03816e-05 0)
(0.000540083 -1.29086e-05 0)
(0.000505858 5.54482e-06 0)
(0.000414151 2.41382e-05 0)
(0.000264545 4.23668e-05 0)
(5.79464e-05 5.99239e-05 0)
(-0.000203856 7.66243e-05 0)
(-0.000518483 9.23593e-05 0)
(-0.000883175 0.00010707 0)
(-0.00129493 0.000120735 0)
(-0.00175064 0.000133352 0)
(-0.00224711 0.00014494 0)
(-0.00278117 0.000155525 0)
(-0.00334969 0.000165142 0)
(-0.00394963 0.00017383 0)
(-0.00457801 0.000181633 0)
(-0.005232 0.000188596 0)
(-0.00590884 0.000194762 0)
(-0.00660594 0.000200175 0)
(-0.00732079 0.000204877 0)
(-0.00805101 0.000208907 0)
(-0.00879435 0.000212302 0)
(-0.00954864 0.000215097 0)
(-0.0103118 0.000217324 0)
(-0.0110819 0.000219009 0)
(-0.011857 0.000220178 0)
(-0.0126354 0.000220852 0)
(-0.0134152 0.00022105 0)
(-0.0141948 0.000220788 0)
(-0.0149726 0.000220077 0)
(-0.0157468 0.000218926 0)
(-0.016516 0.000217344 0)
(-0.0172786 0.000215335 0)
(-0.0180329 0.0002129 0)
(-0.0187776 0.000210042 0)
(-0.019511 0.000206759 0)
(-0.0202317 0.000203049 0)
(-0.020938 0.00019891 0)
(-0.0216284 0.000194336 0)
(-0.0223015 0.000189324 0)
(-0.0229555 0.000183869 0)
(-0.023589 0.000177967 0)
(-0.0242004 0.000171614 0)
(-0.024788 0.000164806 0)
(-0.0253504 0.00015754 0)
(-0.0258859 0.000149817 0)
(-0.0263929 0.000141635 0)
(-0.0268698 0.000132997 0)
(-0.0273152 0.000123906 0)
(-0.0277274 0.000114368 0)
(-0.028105 0.00010439 0)
(-0.0284465 9.39841e-05 0)
(-0.0287505 8.31622e-05 0)
(-0.0290156 7.19402e-05 0)
(-0.0292405 6.03368e-05 0)
(-0.029424 4.83732e-05 0)
(-0.0295649 3.60739e-05 0)
(-0.0296622 2.34662e-05 0)
(-0.029715 1.05805e-05 0)
(-0.0297223 -2.54947e-06 0)
(-0.0296836 -1.58873e-05 0)
(-0.0295981 -2.93936e-05 0)
(-0.0294655 -4.30259e-05 0)
(-0.0292855 -5.67393e-05 0)
(-0.0290579 -7.04863e-05 0)
(-0.0287828 -8.42169e-05 0)
(-0.0284603 -9.7879e-05 0)
(-0.028091 -0.000111418 0)
(-0.0276752 -0.00012478 0)
(-0.0272139 -0.000137905 0)
(-0.0267079 -0.000150737 0)
(-0.0261584 -0.000163217 0)
(-0.0255667 -0.000175284 0)
(-0.0249345 -0.00018688 0)
(-0.0242634 -0.000197947 0)
(-0.0235554 -0.000208425 0)
(-0.0228125 -0.000218258 0)
(-0.0220373 -0.000227392 0)
(-0.021232 -0.000235773 0)
(-0.0203994 -0.00024335 0)
(-0.0195423 -0.000250077 0)
(-0.0186638 -0.000255908 0)
(-0.0177668 -0.000260804 0)
(-0.0168546 -0.000264729 0)
(-0.0159307 -0.000267649 0)
(-0.0149984 -0.000269539 0)
(-0.0140613 -0.000270375 0)
(-0.013123 -0.000270142 0)
(-0.012187 -0.000268827 0)
(-0.0112572 -0.000266424 0)
(-0.0103371 -0.000262935 0)
(-0.00943038 -0.000258364 0)
(-0.00854071 -0.000252723 0)
(-0.00767165 -0.00024603 0)
(-0.00682671 -0.000238308 0)
(-0.00600928 -0.000229586 0)
(-0.00522268 -0.000219901 0)
(-0.00447006 -0.000209291 0)
(-0.00375445 -0.000197805 0)
(-0.00307869 -0.000185492 0)
(-0.00244543 -0.000172411 0)
(-0.00185711 -0.000158623 0)
(-0.00131596 -0.000144197 0)
(-0.000823933 -0.000129207 0)
(-0.000382718 -0.000113731 0)
(6.28887e-06 -9.78566e-05 0)
(0.00034202 -8.16777e-05 0)
(0.000623763 -6.53002e-05 0)
(0.000851193 -4.88395e-05 0)
(0.00102443 -3.24239e-05 0)
(0.00114407 -1.62014e-05 0)
(0.0012113 -3.49414e-07 0)
(0.00122797 1.49162e-05 0)
(0.00119672 2.93281e-05 0)
(0.00112115 4.25428e-05 0)
(0.00100608 5.40969e-05 0)
(0.000857938 6.33404e-05 0)
(0.000685188 6.93401e-05 0)
(0.000499092 7.07606e-05 0)
(0.000314444 6.57457e-05 0)
(0.000150695 5.17726e-05 0)
(3.48059e-05 2.64668e-05 0)
(-3.60259e-06 -3.58538e-06 0)
(4.44125e-05 -8.16486e-05 0)
(0.000197895 -0.000198321 0)
(0.000432796 -0.000239043 0)
(0.000663529 -0.000219056 0)
(0.000830399 -0.000158598 0)
(0.000896555 -7.26655e-05 0)
(0.000837312 2.83784e-05 0)
(0.00063713 0.000137435 0)
(0.000287604 0.000249682 0)
(-0.000214478 0.000361847 0)
(-0.000868604 0.000471702 0)
(-0.0016716 0.000577735 0)
(-0.00261839 0.000678934 0)
(-0.0037026 0.000774641 0)
(-0.00491694 0.000864454 0)
(-0.00625359 0.000948162 0)
(-0.00770436 0.00102569 0)
(-0.00926094 0.00109706 0)
(-0.010915 0.00116237 0)
(-0.0126583 0.00122178 0)
(-0.0144828 0.00127546 0)
(-0.0163806 0.00132363 0)
(-0.0183441 0.00136652 0)
(-0.020366 0.00140435 0)
(-0.0224392 0.00143734 0)
(-0.024557 0.00146573 0)
(-0.0267128 0.00148971 0)
(-0.0289005 0.0015095 0)
(-0.0311141 0.00152528 0)
(-0.0333478 0.00153722 0)
(-0.0355961 0.00154546 0)
(-0.0378537 0.00155014 0)
(-0.0401155 0.00155138 0)
(-0.0423764 0.00154928 0)
(-0.0446316 0.00154392 0)
(-0.0468762 0.00153536 0)
(-0.0491056 0.00152366 0)
(-0.0513152 0.00150886 0)
(-0.0535003 0.00149097 0)
(-0.0556565 0.00147001 0)
(-0.0577791 0.00144599 0)
(-0.0598638 0.0014189 0)
(-0.0619059 0.00138874 0)
(-0.063901 0.0013555 0)
(-0.0658444 0.00131915 0)
(-0.0677318 0.00127968 0)
(-0.0695584 0.00123707 0)
(-0.0713198 0.00119133 0)
(-0.0730114 0.00114243 0)
(-0.0746286 0.00109038 0)
(-0.0761668 0.00103519 0)
(-0.0776217 0.000976864 0)
(-0.0789886 0.000915443 0)
(-0.0802632 0.000850964 0)
(-0.0814412 0.00078348 0)
(-0.0825183 0.000713059 0)
(-0.0834905 0.000639787 0)
(-0.0843537 0.000563765 0)
(-0.0851042 0.000485113 0)
(-0.0857383 0.000403967 0)
(-0.0862527 0.000320484 0)
(-0.0866442 0.00023484 0)
(-0.08691 0.000147228 0)
(-0.0870474 5.78621e-05 0)
(-0.0870543 -3.30232e-05 0)
(-0.0869288 -0.000125176 0)
(-0.0866692 -0.000218326 0)
(-0.0862746 -0.000312183 0)
(-0.0857442 -0.000406443 0)
(-0.0850778 -0.000500783 0)
(-0.0842756 -0.000594868 0)
(-0.0833383 -0.000688348 0)
(-0.0822673 -0.000780862 0)
(-0.0810641 -0.000872038 0)
(-0.0797311 -0.000961498 0)
(-0.0782711 -0.00104885 0)
(-0.0766874 -0.00113372 0)
(-0.0749841 -0.00121571 0)
(-0.0731655 -0.00129442 0)
(-0.0712367 -0.00136948 0)
(-0.0692031 -0.0014405 0)
(-0.067071 -0.00150711 0)
(-0.0648468 -0.00156896 0)
(-0.0625376 -0.0016257 0)
(-0.0601511 -0.001677 0)
(-0.0576951 -0.00172255 0)
(-0.0551782 -0.00176208 0)
(-0.052609 -0.00179531 0)
(-0.0499968 -0.00182201 0)
(-0.047351 -0.00184199 0)
(-0.0446812 -0.00185506 0)
(-0.0419974 -0.00186108 0)
(-0.0393098 -0.00185996 0)
(-0.0366284 -0.00185161 0)
(-0.0339636 -0.00183602 0)
(-0.0313256 -0.00181318 0)
(-0.0287248 -0.00178313 0)
(-0.0261712 -0.00174597 0)
(-0.023675 -0.00170181 0)
(-0.0212458 -0.00165082 0)
(-0.0188932 -0.00159321 0)
(-0.0166265 -0.00152921 0)
(-0.0144544 -0.0014591 0)
(-0.0123853 -0.00138322 0)
(-0.0104272 -0.0013019 0)
(-0.00858741 -0.00121557 0)
(-0.00687268 -0.00112464 0)
(-0.00528908 -0.00102961 0)
(-0.00384197 -0.000930989 0)
(-0.0025359 -0.000829354 0)
(-0.00137456 -0.000725322 0)
(-0.000360682 -0.000619572 0)
(0.000504037 -0.000512853 0)
(0.00121906 -0.000406 0)
(0.00178512 -0.000299943 0)
(0.0022044 -0.000195742 0)
(0.00248072 -9.46278e-05 0)
(0.00261979 1.94435e-06 0)
(0.00262955 9.22188e-05 0)
(0.00252055 0.000174042 0)
(0.00230649 0.000244716 0)
(0.00200489 0.000300784 0)
(0.00163794 0.000337772 0)
(0.00123342 0.000349957 0)
(0.00082501 0.000330361 0)
(0.000452428 0.000271136 0)
(0.000166545 0.000166812 0)
(2.63165e-05 3.4722e-05 0)
(5.78186e-05 -0.000206075 0)
(0.000239795 -0.00043339 0)
(0.000493239 -0.000492044 0)
(0.000711265 -0.000419624 0)
(0.000820658 -0.00025367 0)
(0.000774015 -2.44906e-05 0)
(0.000537537 0.000244963 0)
(8.86098e-05 0.000537786 0)
(-0.00058603 0.00084172 0)
(-0.00149242 0.00114794 0)
(-0.00263113 0.00145012 0)
(-0.00399863 0.00174376 0)
(-0.00558837 0.00202571 0)
(-0.00739158 0.00229381 0)
(-0.00939792 0.00254663 0)
(-0.011596 0.00278331 0)
(-0.0139737 0.0030034 0)
(-0.0165186 0.00320676 0)
(-0.019218 0.0033935 0)
(-0.0220593 0.00356387 0)
(-0.0250301 0.00371828 0)
(-0.0281182 0.0038572 0)
(-0.0313116 0.00398116 0)
(-0.0345987 0.00409074 0)
(-0.0379685 0.00418649 0)
(-0.04141 0.00426899 0)
(-0.0449129 0.00433879 0)
(-0.0484673 0.00439642 0)
(-0.0520634 0.00444235 0)
(-0.0556919 0.00447706 0)
(-0.0593439 0.00450094 0)
(-0.0630107 0.00451436 0)
(-0.0666838 0.00451764 0)
(-0.070355 0.00451105 0)
(-0.0740163 0.00449484 0)
(-0.0776599 0.00446917 0)
(-0.0812779 0.00443422 0)
(-0.0848629 0.00439008 0)
(-0.0884073 0.00433684 0)
(-0.0919036 0.00427455 0)
(-0.0953444 0.00420323 0)
(-0.0987223 0.00412291 0)
(-0.10203 0.00403355 0)
(-0.10526 0.00393516 0)
(-0.108405 0.00382771 0)
(-0.111457 0.00371116 0)
(-0.11441 0.0035855 0)
(-0.117255 0.00345072 0)
(-0.119986 0.00330683 0)
(-0.122594 0.00315384 0)
(-0.125074 0.00299179 0)
(-0.127417 0.00282077 0)
(-0.129616 0.00264086 0)
(-0.131665 0.00245221 0)
(-0.133556 0.002255 0)
(-0.135283 0.00204944 0)
(-0.13684 0.0018358 0)
(-0.138219 0.00161438 0)
(-0.139416 0.00138555 0)
(-0.140424 0.0011497 0)
(-0.141238 0.000907316 0)
(-0.141853 0.000658901 0)
(-0.142265 0.000405025 0)
(-0.14247 0.000146314 0)
(-0.142464 -0.000116557 0)
(-0.142245 -0.000382859 0)
(-0.14181 -0.000651812 0)
(-0.141158 -0.000922585 0)
(-0.140287 -0.0011943 0)
(-0.139198 -0.00146605 0)
(-0.137891 -0.00173687 0)
(-0.136368 -0.00200575 0)
(-0.13463 -0.00227169 0)
(-0.13268 -0.00253361 0)
(-0.130523 -0.00279046 0)
(-0.128162 -0.00304113 0)
(-0.125604 -0.00328454 0)
(-0.122854 -0.00351957 0)
(-0.11992 -0.00374514 0)
(-0.116811 -0.00396015 0)
(-0.113533 -0.00416355 0)
(-0.110099 -0.00435428 0)
(-0.106517 -0.00453134 0)
(-0.1028 -0.00469377 0)
(-0.0989595 -0.00484065 0)
(-0.0950079 -0.00497112 0)
(-0.0909587 -0.00508437 0)
(-0.0868261 -0.00517968 0)
(-0.0826244 -0.00525641 0)
(-0.0783686 -0.00531397 0)
(-0.0740741 -0.00535189 0)
(-0.0697567 -0.00536978 0)
(-0.0654322 -0.00536734 0)
(-0.061117 -0.0053444 0)
(-0.0568271 -0.00530087 0)
(-0.0525788 -0.00523677 0)
(-0.0483885 -0.00515223 0)
(-0.0442721 -0.00504751 0)
(-0.0402454 -0.00492297 0)
(-0.0363239 -0.00477907 0)
(-0.0325226 -0.0046164 0)
(-0.028856 -0.00443566 0)
(-0.0253381 -0.00423768 0)
(-0.021982 -0.00402336 0)
(-0.0188003 -0.00379376 0)
(-0.0158043 -0.00355002 0)
(-0.0130047 -0.00329343 0)
(-0.0104109 -0.00302537 0)
(-0.00803133 -0.00274738 0)
(-0.00587288 -0.0024611 0)
(-0.00394119 -0.00216837 0)
(-0.00224033 -0.00187115 0)
(-0.000772678 -0.00157165 0)
(0.000461228 -0.00127228 0)
(0.00146292 -0.000975756 0)
(0.00223621 -0.000685161 0)
(0.00278749 -0.000404006 0)
(0.00312606 -0.000136386 0)
(0.00326461 0.000112867 0)
(0.00321969 0.000337975 0)
(0.0030123 0.000531953 0)
(0.00266867 0.000686294 0)
(0.00222098 0.000790645 0)
(0.00170818 0.000832682 0)
(0.00117557 0.000798585 0)
(0.000674207 0.000674616 0)
(0.000270446 0.000452481 0)
(5.14107e-05 0.000150188 0)
(5.65108e-05 -0.000340076 0)
(0.000221283 -0.000665311 0)
(0.000423212 -0.000710582 0)
(0.000547071 -0.000543277 0)
(0.000513674 -0.000220446 0)
(0.000270276 0.00021112 0)
(-0.000221746 0.000714577 0)
(-0.000989076 0.00126171 0)
(-0.00204807 0.00183123 0)
(-0.00340679 0.00240724 0)
(-0.00506675 0.00297797 0)
(-0.00702435 0.00353479 0)
(-0.00927213 0.00407145 0)
(-0.0117997 0.00458352 0)
(-0.0145943 0.00506798 0)
(-0.017642 0.00552286 0)
(-0.0209276 0.00594703 0)
(-0.0244351 0.00633995 0)
(-0.0281484 0.0067016 0)
(-0.0320512 0.00703227 0)
(-0.0361273 0.00733255 0)
(-0.0403607 0.00760319 0)
(-0.0447355 0.00784509 0)
(-0.0492366 0.00805919 0)
(-0.053849 0.00824651 0)
(-0.0585582 0.00840805 0)
(-0.0633504 0.00854479 0)
(-0.0682118 0.00865769 0)
(-0.0731296 0.00874763 0)
(-0.078091 0.00881545 0)
(-0.0830837 0.0088619 0)
(-0.0880959 0.00888767 0)
(-0.093116 0.00889335 0)
(-0.0981327 0.00887947 0)
(-0.103135 0.00884645 0)
(-0.108112 0.00879468 0)
(-0.113053 0.00872444 0)
(-0.117948 0.00863595 0)
(-0.122786 0.00852939 0)
(-0.127557 0.00840487 0)
(-0.13225 0.00826247 0)
(-0.136856 0.00810221 0)
(-0.141365 0.0079241 0)
(-0.145766 0.00772815 0)
(-0.150049 0.00751432 0)
(-0.154204 0.00728259 0)
(-0.158221 0.00703297 0)
(-0.16209 0.00676546 0)
(-0.165801 0.00648009 0)
(-0.169343 0.00617694 0)
(-0.172709 0.00585613 0)
(-0.175886 0.00551782 0)
(-0.178866 0.00516226 0)
(-0.18164 0.00478974 0)
(-0.184197 0.00440062 0)
(-0.18653 0.00399537 0)
(-0.18863 0.00357453 0)
(-0.190487 0.00313871 0)
(-0.192095 0.00268865 0)
(-0.193446 0.00222517 0)
(-0.194532 0.00174918 0)
(-0.195348 0.0012617 0)
(-0.195888 0.000763869 0)
(-0.196146 0.000256898 0)
(-0.196118 -0.000257881 0)
(-0.195801 -0.000779043 0)
(-0.195191 -0.00130507 0)
(-0.194287 -0.00183433 0)
(-0.193087 -0.00236515 0)
(-0.191592 -0.00289573 0)
(-0.189803 -0.00342421 0)
(-0.18772 -0.00394867 0)
(-0.185348 -0.00446713 0)
(-0.182691 -0.00497755 0)
(-0.179753 -0.00547787 0)
(-0.176542 -0.00596599 0)
(-0.173063 -0.00643979 0)
(-0.169328 -0.00689716 0)
(-0.165344 -0.00733599 0)
(-0.161123 -0.00775421 0)
(-0.156676 -0.00814976 0)
(-0.152018 -0.00852065 0)
(-0.147163 -0.00886496 0)
(-0.142124 -0.00918084 0)
(-0.136919 -0.00946653 0)
(-0.131565 -0.00972039 0)
(-0.126079 -0.0099409 0)
(-0.12048 -0.0101267 0)
(-0.114787 -0.0102764 0)
(-0.109022 -0.0103891 0)
(-0.103203 -0.0104639 0)
(-0.0973523 -0.0104999 0)
(-0.091491 -0.0104966 0)
(-0.0856406 -0.0104537 0)
(-0.0798227 -0.0103711 0)
(-0.074059 -0.0102488 0)
(-0.0683712 -0.010087 0)
(-0.0627805 -0.00988626 0)
(-0.057308 -0.0096473 0)
(-0.0519743 -0.00937102 0)
(-0.0467993 -0.00905857 0)
(-0.0418025 -0.00871132 0)
(-0.0370021 -0.00833085 0)
(-0.0324159 -0.00791898 0)
(-0.0280602 -0.00747774 0)
(-0.0239503 -0.0070094 0)
(-0.0201002 -0.00651644 0)
(-0.0165224 -0.00600161 0)
(-0.0132278 -0.00546789 0)
(-0.0102254 -0.00491854 0)
(-0.00752264 -0.00435714 0)
(-0.0051246 -0.00378757 0)
(-0.00303423 -0.00321412 0)
(-0.00125196 -0.00264151 0)
(0.000224496 -0.00207503 0)
(0.00140046 -0.00152061 0)
(0.00228459 -0.000984971 0)
(0.00288929 -0.000475847 0)
(0.00323117 -2.18863e-06 0)
(0.00333157 0.000425512 0)
(0.00321716 0.000794894 0)
(0.00292052 0.00109138 0)
(0.00248088 0.0012979 0)
(0.00194462 0.00139491 0)
(0.00136472 0.00136126 0)
(0.000800158 0.00117627 0)
(0.00033001 0.000825084 0)
(6.52672e-05 0.0003133 0)
(4.65835e-05 -0.000452091 0)
(0.000162076 -0.000834399 0)
(0.000258686 -0.00082109 0)
(0.000224992 -0.000510064 0)
(-1.81198e-05 2.13572e-05 0)
(-0.000525234 0.000709811 0)
(-0.00133674 0.00150449 0)
(-0.00248094 0.00236555 0)
(-0.00397561 0.00326212 0)
(-0.00582978 0.00417052 0)
(-0.00804539 0.00507278 0)
(-0.0106187 0.00595538 0)
(-0.0135414 0.00680832 0)
(-0.0168019 0.00762432 0)
(-0.0203857 0.00839825 0)
(-0.0242765 0.00912665 0)
(-0.0284567 0.00980738 0)
(-0.0329076 0.0104393 0)
(-0.0376101 0.011022 0)
(-0.0425448 0.0115557 0)
(-0.0476921 0.0120412 0)
(-0.0530327 0.0124794 0)
(-0.0585476 0.0128715 0)
(-0.0642182 0.013219 0)
(-0.0700261 0.0135233 0)
(-0.0759536 0.0137858 0)
(-0.0819834 0.0140081 0)
(-0.0880988 0.0141915 0)
(-0.0942836 0.0143375 0)
(-0.100522 0.0144473 0)
(-0.106798 0.0145221 0)
(-0.113098 0.0145629 0)
(-0.119406 0.0145707 0)
(-0.125709 0.0145463 0)
(-0.131993 0.0144903 0)
(-0.138243 0.0144034 0)
(-0.144447 0.0142861 0)
(-0.150591 0.0141386 0)
(-0.156662 0.0139614 0)
(-0.162648 0.0137545 0)
(-0.168534 0.0135182 0)
(-0.174309 0.0132525 0)
(-0.179959 0.0129575 0)
(-0.185472 0.0126332 0)
(-0.190835 0.0122796 0)
(-0.196036 0.0118967 0)
(-0.201062 0.0114845 0)
(-0.205899 0.0110432 0)
(-0.210537 0.0105727 0)
(-0.214962 0.0100733 0)
(-0.219162 0.00954521 0)
(-0.223125 0.00898875 0)
(-0.22684 0.00840433 0)
(-0.230294 0.00779249 0)
(-0.233476 0.00715387 0)
(-0.236375 0.00648926 0)
(-0.238981 0.00579956 0)
(-0.241284 0.00508582 0)
(-0.243273 0.00434927 0)
(-0.244939 0.00359125 0)
(-0.246275 0.00281328 0)
(-0.247272 0.00201706 0)
(-0.247924 0.00120441 0)
(-0.248224 0.000377356 0)
(-0.248168 -0.000461953 0)
(-0.24775 -0.00131119 0)
(-0.246967 -0.00216789 0)
(-0.245818 -0.00302943 0)
(-0.244301 -0.00389305 0)
(-0.242416 -0.00475588 0)
(-0.240165 -0.00561492 0)
(-0.237551 -0.00646707 0)
(-0.234577 -0.00730913 0)
(-0.231248 -0.00813784 0)
(-0.227571 -0.00894987 0)
(-0.223554 -0.00974185 0)
(-0.219207 -0.0105104 0)
(-0.214541 -0.0112521 0)
(-0.209567 -0.0119636 0)
(-0.204299 -0.0126416 0)
(-0.198752 -0.0132828 0)
(-0.192942 -0.0138841 0)
(-0.186887 -0.0144422 0)
(-0.180606 -0.0149544 0)
(-0.174118 -0.0154177 0)
(-0.167444 -0.0158296 0)
(-0.160607 -0.0161877 0)
(-0.15363 -0.0164897 0)
(-0.146535 -0.0167336 0)
(-0.139349 -0.0169178 0)
(-0.132096 -0.0170408 0)
(-0.124801 -0.0171013 0)
(-0.117492 -0.0170987 0)
(-0.110194 -0.0170322 0)
(-0.102934 -0.0169018 0)
(-0.0957382 -0.0167074 0)
(-0.0886337 -0.0164496 0)
(-0.0816465 -0.0161291 0)
(-0.0748022 -0.0157471 0)
(-0.0681261 -0.0153051 0)
(-0.0616426 -0.014805 0)
(-0.0553754 -0.014249 0)
(-0.0493471 -0.0136396 0)
(-0.0435792 -0.0129799 0)
(-0.0380917 -0.012273 0)
(-0.0329033 -0.0115228 0)
(-0.028031 -0.0107332 0)
(-0.02349 -0.00990868 0)
(-0.0192935 -0.00905416 0)
(-0.0154525 -0.00817493 0)
(-0.0119759 -0.00727677 0)
(-0.00886971 -0.00636602 0)
(-0.00613738 -0.00544961 0)
(-0.00377928 -0.00453519 0)
(-0.00179247 -0.00363122 0)
(-0.000170419 -0.00274715 0)
(0.00109741 -0.00189362 0)
(0.00202589 -0.00108269 0)
(0.00263471 -0.000328133 0)
(0.00294887 0.000354206 0)
(0.00299919 0.00094604 0)
(0.00282282 0.00142629 0)
(0.00246385 0.00177089 0)
(0.00197376 0.00195285 0)
(0.00141096 0.00194311 0)
(0.000840643 0.00171249 0)
(0.00035154 0.00123551 0)
(7.04242e-05 0.000497699 0)
(3.18455e-05 -0.000524949 0)
(7.65003e-05 -0.000902854 0)
(2.81654e-05 -0.000774431 0)
(-0.000211522 -0.000264638 0)
(-0.000716623 0.000529807 0)
(-0.00154076 0.00152956 0)
(-0.00272369 0.00267029 0)
(-0.00429339 0.00390068 0)
(-0.0062675 0.00518023 0)
(-0.00865498 0.00647722 0)
(-0.0114575 0.00776711 0)
(-0.0146708 0.00903108 0)
(-0.0182857 0.0102549 0)
(-0.0222894 0.0114281 0)
(-0.0266659 0.0125429 0)
(-0.0313972 0.0135942 0)
(-0.0364633 0.0145785 0)
(-0.0418434 0.0154937 0)
(-0.0475157 0.016339 0)
(-0.0534582 0.0171145 0)
(-0.0596484 0.0178208 0)
(-0.0660644 0.0184591 0)
(-0.0726839 0.0190308 0)
(-0.0794854 0.0195379 0)
(-0.0864477 0.0199822 0)
(-0.0935499 0.0203657 0)
(-0.100772 0.0206903 0)
(-0.108094 0.0209581 0)
(-0.115497 0.0211709 0)
(-0.122961 0.0213304 0)
(-0.13047 0.0214383 0)
(-0.138005 0.0214961 0)
(-0.145548 0.0215049 0)
(-0.153083 0.0214661 0)
(-0.160593 0.0213806 0)
(-0.168062 0.0212492 0)
(-0.175474 0.0210726 0)
(-0.182812 0.0208514 0)
(-0.190061 0.020586 0)
(-0.197205 0.0202768 0)
(-0.20423 0.0199239 0)
(-0.211119 0.0195275 0)
(-0.217857 0.0190878 0)
(-0.224428 0.0186047 0)
(-0.230819 0.0180785 0)
(-0.237014 0.017509 0)
(-0.242997 0.0168965 0)
(-0.248754 0.0162411 0)
(-0.25427 0.0155429 0)
(-0.25953 0.0148023 0)
(-0.26452 0.0140198 0)
(-0.269225 0.0131957 0)
(-0.273632 0.0123309 0)
(-0.277727 0.0114261 0)
(-0.281497 0.0104824 0)
(-0.284928 0.00950082 0)
(-0.288009 0.00848291 0)
(-0.290727 0.0074302 0)
(-0.293071 0.00634451 0)
(-0.295031 0.00522786 0)
(-0.296597 0.00408252 0)
(-0.297759 0.00291097 0)
(-0.298511 0.00171594 0)
(-0.298845 0.000500366 0)
(-0.298755 -0.000732561 0)
(-0.298236 -0.00197944 0)
(-0.297284 -0.00323666 0)
(-0.295898 -0.0045004 0)
(-0.294076 -0.00576664 0)
(-0.291819 -0.00703118 0)
(-0.289128 -0.00828967 0)
(-0.286007 -0.0095376 0)
(-0.28246 -0.0107703 0)
(-0.278495 -0.0119831 0)
(-0.274118 -0.0131712 0)
(-0.26934 -0.0143296 0)
(-0.264171 -0.0154535 0)
(-0.258625 -0.016538 0)
(-0.252716 -0.0175782 0)
(-0.24646 -0.0185693 0)
(-0.239874 -0.0195066 0)
(-0.232978 -0.0203855 0)
(-0.225793 -0.0212015 0)
(-0.21834 -0.0219504 0)
(-0.210642 -0.0226283 0)
(-0.202725 -0.0232312 0)
(-0.194614 -0.0237558 0)
(-0.186336 -0.0241988 0)
(-0.177919 -0.0245574 0)
(-0.169391 -0.0248291 0)
(-0.160783 -0.0250119 0)
(-0.152124 -0.0251041 0)
(-0.143445 -0.0251045 0)
(-0.134776 -0.0250122 0)
(-0.126149 -0.024827 0)
(-0.117595 -0.0245491 0)
(-0.109145 -0.024179 0)
(-0.100829 -0.0237181 0)
(-0.0926769 -0.023168 0)
(-0.0847188 -0.0225309 0)
(-0.0769828 -0.0218095 0)
(-0.0694967 -0.021007 0)
(-0.0622868 -0.0201273 0)
(-0.055378 -0.0191747 0)
(-0.0487939 -0.0181539 0)
(-0.0425561 -0.0170703 0)
(-0.0366844 -0.01593 0)
(-0.0311964 -0.0147393 0)
(-0.0261076 -0.0135055 0)
(-0.0214306 -0.0122363 0)
(-0.0171757 -0.0109401 0)
(-0.0133498 -0.00962617 0)
(-0.009957 -0.00830461 0)
(-0.0069976 -0.00698645 0)
(-0.00446826 -0.00568389 0)
(-0.00236152 -0.00441044 0)
(-0.000665471 -0.00318117 0)
(0.000636632 -0.00201298 0)
(0.00156675 -0.000924957 0)
(0.00215254 6.12974e-05 0)
(0.00242774 0.000921246 0)
(0.00243269 0.00162708 0)
(0.0022148 0.00214752 0)
(0.00182911 0.00244785 0)
(0.00133789 0.00249049 0)
(0.000811084 0.00223629 0)
(0.00034357 0.0016467 0)
(6.95355e-05 0.000684959 0)
(1.44944e-05 -0.000548201 0)
(-2.57721e-05 -0.000844145 0)
(-0.000247213 -0.00053373 0)
(-0.000728962 0.000235943 0)
(-0.00153622 0.00135084 0)
(-0.00271932 0.00271693 0)
(-0.00431545 0.00425718 0)
(-0.00635055 0.00590938 0)
(-0.00884085 0.00762367 0)
(-0.0117942 0.00936041 0)
(-0.0152112 0.0110884 0)
(-0.0190868 0.0127834 0)
(-0.0234105 0.0144266 0)
(-0.0281683 0.0160042 0)
(-0.0333428 0.0175056 0)
(-0.0389142 0.0189235 0)
(-0.0448607 0.020253 0)
(-0.0511595 0.021491 0)
(-0.0577864 0.022636 0)
(-0.0647172 0.0236877 0)
(-0.0719271 0.0246466 0)
(-0.0793912 0.025514 0)
(-0.0870851 0.0262917 0)
(-0.0949844 0.0269819 0)
(-0.103065 0.0275868 0)
(-0.111304 0.028109 0)
(-0.119677 0.0285509 0)
(-0.128164 0.0289151 0)
(-0.13674 0.0292039 0)
(-0.145386 0.0294197 0)
(-0.154081 0.0295644 0)
(-0.162803 0.02964 0)
(-0.171533 0.0296482 0)
(-0.180251 0.0295905 0)
(-0.188938 0.0294684 0)
(-0.197576 0.0292828 0)
(-0.206145 0.0290347 0)
(-0.214626 0.0287248 0)
(-0.223003 0.0283539 0)
(-0.231256 0.0279222 0)
(-0.239368 0.0274303 0)
(-0.247322 0.0268783 0)
(-0.255098 0.0262665 0)
(-0.26268 0.025595 0)
(-0.270051 0.0248639 0)
(-0.277192 0.0240734 0)
(-0.284087 0.0232237 0)
(-0.290718 0.0223151 0)
(-0.297068 0.021348 0)
(-0.303122 0.0203228 0)
(-0.308861 0.0192401 0)
(-0.31427 0.0181008 0)
(-0.319333 0.0169059 0)
(-0.324035 0.0156566 0)
(-0.328359 0.0143542 0)
(-0.332292 0.0130006 0)
(-0.33582 0.0115977 0)
(-0.338928 0.0101476 0)
(-0.341606 0.00865299 0)
(-0.34384 0.00711662 0)
(-0.345619 0.00554164 0)
(-0.346935 0.00393148 0)
(-0.347777 0.00228988 0)
(-0.348139 0.000620917 0)
(-0.348013 -0.00107107 0)
(-0.347395 -0.00278141 0)
(-0.34628 -0.00450518 0)
(-0.344666 -0.00623715 0)
(-0.342553 -0.00797186 0)
(-0.33994 -0.0097036 0)
(-0.33683 -0.0114264 0)
(-0.333227 -0.0131342 0)
(-0.329138 -0.0148208 0)
(-0.324568 -0.0164796 0)
(-0.319528 -0.0181041 0)
(-0.314029 -0.0196878 0)
(-0.308083 -0.0212241 0)
(-0.301705 -0.0227063 0)
(-0.294912 -0.0241278 0)
(-0.287721 -0.0254822 0)
(-0.280154 -0.0267631 0)
(-0.272232 -0.0279643 0)
(-0.263978 -0.0290798 0)
(-0.255417 -0.030104 0)
(-0.246576 -0.0310313 0)
(-0.237483 -0.0318568 0)
(-0.228166 -0.0325756 0)
(-0.218658 -0.0331836 0)
(-0.208988 -0.0336769 0)
(-0.19919 -0.0340522 0)
(-0.189297 -0.0343067 0)
(-0.179344 -0.0344382 0)
(-0.169364 -0.0344451 0)
(-0.159393 -0.0343262 0)
(-0.149465 -0.0340813 0)
(-0.139616 -0.0337105 0)
(-0.129881 -0.0332149 0)
(-0.120295 -0.0325959 0)
(-0.110891 -0.031856 0)
(-0.101702 -0.0309981 0)
(-0.0927613 -0.030026 0)
(-0.0840997 -0.028944 0)
(-0.075747 -0.0277573 0)
(-0.0677315 -0.0264718 0)
(-0.0600796 -0.0250941 0)
(-0.0528158 -0.0236315 0)
(-0.0459626 -0.0220921 0)
(-0.0395398 -0.0204848 0)
(-0.0335648 -0.0188193 0)
(-0.028052 -0.0171063 0)
(-0.023013 -0.0153571 0)
(-0.0184556 -0.0135842 0)
(-0.0143846 -0.0118015 0)
(-0.0108003 -0.0100236 0)
(-0.00769931 -0.00826708 0)
(-0.00507359 -0.00654978 0)
(-0.0029103 -0.00489165 0)
(-0.00119144 -0.00331482 0)
(0.000106544 -0.00184399 0)
(0.00101307 -0.000506782 0)
(0.00156387 0.000665823 0)
(0.00180137 0.00163914 0)
(0.00177518 0.00237453 0)
(0.00154267 0.0028293 0)
(0.00116873 0.00295687 0)
(0.000726493 0.00270736 0)
(0.000313569 0.00202829 0)
(6.45558e-05 0.000861613 0)
(-4.18193e-06 -0.000515434 0)
(-0.000138286 -0.000640012 0)
(-0.000552243 -7.2004e-05 0)
(-0.00130223 0.00102431 0)
(-0.0024419 0.00252026 0)
(-0.00401642 0.00430884 0)
(-0.0060588 0.00630157 0)
(-0.00859157 0.00842616 0)
(-0.0116284 0.010624 0)
(-0.015175 0.0128477 0)
(-0.0192304 0.0150598 0)
(-0.0237879 0.0172305 0)
(-0.0288357 0.0193366 0)
(-0.0343583 0.0213605 0)
(-0.0403366 0.0232889 0)
(-0.0467492 0.0251123 0)
(-0.0535728 0.0268239 0)
(-0.0607823 0.0284195 0)
(-0.068352 0.0298969 0)
(-0.0762553 0.0312553 0)
(-0.0844652 0.0324949 0)
(-0.0929547 0.0336172 0)
(-0.101697 0.0346241 0)
(-0.110665 0.035518 0)
(-0.119833 0.0363016 0)
(-0.129174 0.0369781 0)
(-0.138664 0.0375502 0)
(-0.148277 0.0380212 0)
(-0.157988 0.0383937 0)
(-0.167775 0.0386708 0)
(-0.177613 0.0388548 0)
(-0.187479 0.0389483 0)
(-0.197352 0.0389533 0)
(-0.207209 0.0388718 0)
(-0.217029 0.0387053 0)
(-0.226789 0.0384555 0)
(-0.236469 0.0381233 0)
(-0.246049 0.0377099 0)
(-0.255507 0.037216 0)
(-0.264823 0.0366422 0)
(-0.273978 0.0359892 0)
(-0.28295 0.0352571 0)
(-0.29172 0.0344464 0)
(-0.300269 0.0335573 0)
(-0.308575 0.0325901 0)
(-0.316621 0.0315451 0)
(-0.324386 0.0304225 0)
(-0.331852 0.029223 0)
(-0.338998 0.0279469 0)
(-0.345807 0.0265951 0)
(-0.35226 0.0251684 0)
(-0.358339 0.023668 0)
(-0.364025 0.0220953 0)
(-0.369302 0.020452 0)
(-0.374154 0.01874 0)
(-0.378563 0.0169615 0)
(-0.382514 0.0151193 0)
(-0.385992 0.0132163 0)
(-0.388984 0.0112558 0)
(-0.391477 0.00924162 0)
(-0.393458 0.00717787 0)
(-0.394917 0.00506906 0)
(-0.395844 0.00292011 0)
(-0.39623 0.000736331 0)
(-0.396069 -0.00147659 0)
(-0.395355 -0.00371259 0)
(-0.394084 -0.00596523 0)
(-0.392253 -0.00822773 0)
(-0.389862 -0.010493 0)
(-0.386911 -0.0127536 0)
(-0.383404 -0.0150019 0)
(-0.379344 -0.01723 0)
(-0.374739 -0.0194297 0)
(-0.369597 -0.0215927 0)
(-0.363929 -0.0237107 0)
(-0.357746 -0.0257751 0)
(-0.351064 -0.0277774 0)
(-0.343898 -0.029709 0)
(-0.336268 -0.0315616 0)
(-0.328194 -0.0333266 0)
(-0.319697 -0.0349961 0)
(-0.310802 -0.0365619 0)
(-0.301536 -0.0380164 0)
(-0.291926 -0.0393523 0)
(-0.282001 -0.0405626 0)
(-0.271792 -0.0416408 0)
(-0.261332 -0.0425808 0)
(-0.250655 -0.0433771 0)
(-0.239796 -0.0440249 0)
(-0.22879 -0.0445198 0)
(-0.217675 -0.0448584 0)
(-0.206488 -0.0450378 0)
(-0.195268 -0.0450558 0)
(-0.184052 -0.0449111 0)
(-0.172881 -0.0446034 0)
(-0.161793 -0.0441328 0)
(-0.150826 -0.0435006 0)
(-0.14002 -0.042709 0)
(-0.12941 -0.0417609 0)
(-0.119035 -0.0406603 0)
(-0.10893 -0.0394118 0)
(-0.0991289 -0.0380214 0)
(-0.0896655 -0.0364957 0)
(-0.0805709 -0.0348422 0)
(-0.0718744 -0.0330696 0)
(-0.0636031 -0.0311874 0)
(-0.0557818 -0.0292061 0)
(-0.0484327 -0.0271372 0)
(-0.0415748 -0.0249933 0)
(-0.0352244 -0.0227881 0)
(-0.0293942 -0.0205365 0)
(-0.0240933 -0.0182546 0)
(-0.0193269 -0.01596 0)
(-0.0150959 -0.0136717 0)
(-0.0113969 -0.0114106 0)
(-0.00822166 -0.00919942 0)
(-0.00555686 -0.00706328 0)
(-0.00338377 -0.00502976 0)
(-0.00167792 -0.00312936 0)
(-0.000408785 -0.00139593 0)
(0.000460545 0.000133011 0)
(0.000973735 0.00141584 0)
(0.00118167 0.00240646 0)
(0.00114303 0.00305409 0)
(0.000924165 0.00330295 0)
(0.000599886 0.00309237 0)
(0.000267549 0.00235632 0)
(5.68796e-05 0.00101793 0)
(-2.3439e-05 -0.000422941 0)
(-0.000256788 -0.00027852 0)
(-0.000876177 0.000629562 0)
(-0.00191283 0.00212426 0)
(-0.0034071 0.00406505 0)
(-0.00539761 0.00633393 0)
(-0.00791187 0.00883235 0)
(-0.0109679 0.011479 0)
(-0.0145757 0.0142072 0)
(-0.0187382 0.0169626 0)
(-0.0234521 0.0197015 0)
(-0.0287084 0.0223888 0)
(-0.0344937 0.0249972 0)
(-0.0407906 0.0275052 0)
(-0.0475786 0.0298967 0)
(-0.0548343 0.0321599 0)
(-0.0625328 0.0342863 0)
(-0.0706473 0.0362705 0)
(-0.0791501 0.0381092 0)
(-0.0880127 0.039801 0)
(-0.0972062 0.0413462 0)
(-0.106701 0.0427459 0)
(-0.11647 0.0440022 0)
(-0.126481 0.0451179 0)
(-0.136709 0.0460961 0)
(-0.147123 0.0469401 0)
(-0.157697 0.0476535 0)
(-0.168403 0.0482397 0)
(-0.179214 0.0487023 0)
(-0.190105 0.0490444 0)
(-0.201049 0.0492693 0)
(-0.212021 0.0493796 0)
(-0.222997 0.0493781 0)
(-0.233952 0.0492669 0)
(-0.244863 0.0490482 0)
(-0.255705 0.0487237 0)
(-0.266456 0.0482948 0)
(-0.277091 0.0477627 0)
(-0.287589 0.0471286 0)
(-0.297927 0.0463932 0)
(-0.308083 0.0455571 0)
(-0.318034 0.044621 0)
(-0.327757 0.0435852 0)
(-0.337232 0.0424502 0)
(-0.346436 0.0412164 0)
(-0.355349 0.0398843 0)
(-0.363947 0.0384543 0)
(-0.372211 0.0369271 0)
(-0.380119 0.0353036 0)
(-0.38765 0.0335847 0)
(-0.394785 0.0317717 0)
(-0.401503 0.0298662 0)
(-0.407785 0.02787 0)
(-0.413613 0.0257852 0)
(-0.418966 0.0236145 0)
(-0.423829 0.0213607 0)
(-0.428184 0.0190274 0)
(-0.432016 0.0166184 0)
(-0.435308 0.0141378 0)
(-0.438047 0.0115905 0)
(-0.44022 0.00898175 0)
(-0.441816 0.00631725 0)
(-0.442824 0.00360322 0)
(-0.443234 0.000846358 0)
(-0.44304 -0.00194617 0)
(-0.442236 -0.00476674 0)
(-0.440817 -0.00760725 0)
(-0.438781 -0.0104592 0)
(-0.436127 -0.0133138 0)
(-0.432856 -0.0161616 0)
(-0.428973 -0.0189932 0)
(-0.424481 -0.0217985 0)
(-0.419388 -0.0245676 0)
(-0.413704 -0.02729 0)
(-0.407441 -0.0299552 0)
(-0.400611 -0.0325528 0)
(-0.393231 -0.0350719 0)
(-0.385319 -0.0375021 0)
(-0.376895 -0.0398328 0)
(-0.367982 -0.0420537 0)
(-0.358603 -0.0441545 0)
(-0.348786 -0.0461253 0)
(-0.338559 -0.0479567 0)
(-0.327951 -0.0496395 0)
(-0.316996 -0.051165 0)
(-0.305726 -0.0525252 0)
(-0.294178 -0.0537126 0)
(-0.282388 -0.0547203 0)
(-0.270394 -0.0555423 0)
(-0.258235 -0.0561734 0)
(-0.245952 -0.056609 0)
(-0.233586 -0.0568456 0)
(-0.221177 -0.0568807 0)
(-0.20877 -0.0567126 0)
(-0.196404 -0.0563408 0)
(-0.184124 -0.0557656 0)
(-0.171971 -0.0549886 0)
(-0.159986 -0.0540124 0)
(-0.148211 -0.0528409 0)
(-0.136686 -0.0514788 0)
(-0.125449 -0.0499322 0)
(-0.114539 -0.0482083 0)
(-0.103991 -0.0463154 0)
(-0.0938392 -0.0442631 0)
(-0.0841161 -0.042062 0)
(-0.0748511 -0.0397242 0)
(-0.0660713 -0.0372627 0)
(-0.0578008 -0.0346919 0)