/*--------------------------------*- C++ -*----------------------------------*\
  =========                 |
  \\      /  F ield         | OpenFOAM: The Open Source CFD Toolbox
   \\    /   O peration     | Website:  https://openfoam.org
    \\  /    A nd           | Version:  9
     \\/     M anipulation  |
\*---------------------------------------------------------------------------*/
FoamFile
{
    format      ascii;
    class       volScalarField;
    location    "0.3";
    object      p;
}
// * * * * * * * * * * * * * * * * * * * * * * * * * * * * * * * * * * * * * //

dimensions      [0 2 -2 0 0 0 0];

internalField   nonuniform List<scalar> 
16384
(
0.000236441
0.00159521
0.000725808
-0.00283555
-0.0088634
-0.0170502
-0.0270434
-0.0384821
-0.0510284
-0.0643774
-0.0782592
-0.0924374
-0.106706
-0.120885
-0.134822
-0.148383
-0.161457
-0.173947
-0.185773
-0.196865
-0.207168
-0.216635
-0.225225
-0.232908
-0.239659
-0.245455
-0.250282
-0.254125
-0.256974
-0.258823
-0.259665
-0.259495
-0.25831
-0.256108
-0.252887
-0.248648
-0.243388
-0.237109
-0.229813
-0.2215
-0.212174
-0.201838
-0.190497
-0.178157
-0.164826
-0.150512
-0.135228
-0.118985
-0.101801
-0.0836926
-0.0646812
-0.0447905
-0.0240477
-0.00248314
0.0198694
0.0429723
0.0667846
0.0912611
0.116353
0.142007
0.168168
0.194773
0.221758
0.249056
0.276595
0.304298
0.332088
0.359883
0.3876
0.41515
0.442447
0.4694
0.495918
0.521909
0.54728
0.57194
0.595799
0.618766
0.640754
0.661678
0.681457
0.700012
0.71727
0.733162
0.747624
0.7606
0.77204
0.781898
0.79014
0.796737
0.80167
0.804927
0.806505
0.806413
0.804666
0.801289
0.796319
0.789799
0.781784
0.772338
0.761533
0.749452
0.736186
0.721835
0.706506
0.690316
0.673389
0.655857
0.637859
0.619541
0.601056
0.582563
0.564229
0.546225
0.528729
0.511924
0.495998
0.481145
0.467562
0.455447
0.444996
0.436396
0.429814
0.42537
0.423097
0.422871
0.424321
0.426434
-0.000771361
0.000442183
-0.00058463
-0.00392903
-0.00930773
-0.0165132
-0.0252975
-0.0353834
-0.0464978
-0.0583844
-0.0708085
-0.0835591
-0.0964481
-0.10931
-0.121998
-0.134387
-0.146367
-0.157843
-0.168735
-0.178975
-0.188503
-0.197271
-0.205237
-0.212368
-0.218634
-0.224014
-0.228487
-0.232038
-0.234655
-0.236327
-0.237048
-0.23681
-0.235608
-0.23344
-0.230302
-0.226193
-0.221112
-0.215058
-0.208033
-0.200037
-0.191073
-0.181146
-0.170259
-0.158419
-0.145633
-0.13191
-0.117263
-0.101703
-0.0852471
-0.0679125
-0.04972
-0.030693
-0.010858
0.00975534
0.0311142
0.0531822
0.0759196
0.0992829
0.123225
0.147695
0.17264
0.197999
0.223713
0.249715
0.275938
0.302309
0.328755
0.355197
0.381557
0.407751
0.433697
0.45931
0.484502
0.509188
0.53328
0.556693
0.579341
0.601139
0.622005
0.641861
0.660629
0.678236
0.694615
0.7097
0.723433
0.735762
0.746638
0.756024
0.763884
0.770195
0.774939
0.778106
0.779695
0.779715
0.778182
0.775122
0.770568
0.764565
0.757165
0.748429
0.738427
0.727238
0.714949
0.701655
0.687459
0.672472
0.65681
0.640599
0.623971
0.607062
0.590017
0.572984
0.55612
0.539581
0.523534
0.508144
0.493583
0.480022
0.467633
0.456585
0.447039
0.439141
0.43301
0.428722
0.42627
0.425543
0.426437
0.42855
0.000174407
0.00149145
0.000453809
-0.00275087
-0.00774436
-0.0143437
-0.0223474
-0.0315254
-0.0416471
-0.0524922
-0.0638549
-0.0755461
-0.0873948
-0.0992479
-0.110969
-0.12244
-0.133555
-0.144222
-0.154364
-0.163912
-0.172809
-0.181004
-0.188455
-0.195128
-0.200992
-0.206024
-0.210201
-0.213508
-0.21593
-0.217456
-0.218076
-0.217783
-0.216571
-0.214436
-0.211374
-0.207381
-0.202458
-0.196602
-0.189815
-0.182097
-0.173451
-0.163879
-0.153387
-0.141981
-0.129668
-0.116456
-0.102358
-0.0873853
-0.0715542
-0.0548819
-0.0373887
-0.0190974
-3.38196e-05
0.0197733
0.040292
0.0614872
0.0833202
0.105749
0.128729
0.15221
0.17614
0.200464
0.225122
0.250051
0.275187
0.300459
0.325798
0.351129
0.376376
0.40146
0.426302
0.45082
0.474933
0.498557
0.52161
0.544011
0.565677
0.586528
0.606488
0.625479
0.643431
0.660274
0.675943
0.690377
0.703522
0.715327
0.725749
0.734751
0.742302
0.748378
0.752965
0.756054
0.757645
0.757747
0.756376
0.753559
0.749328
0.743727
0.736805
0.728623
0.719248
0.708756
0.69723
0.684762
0.67145
0.657401
0.642725
0.627543
0.611979
0.596163
0.580232
0.564326
0.54859
0.533173
0.518227
0.503907
0.490368
0.477766
0.466255
0.455981
0.447084
0.439686
0.433888
0.429754
0.427284
0.426422
0.427327
0.430009
0.00375597
0.004853
0.00365717
0.000436764
-0.00440368
-0.0106841
-0.0182232
-0.0268185
-0.0362684
-0.0463797
-0.05697
-0.0678699
-0.0789244
-0.0899932
-0.100951
-0.111685
-0.122097
-0.132101
-0.141621
-0.150591
-0.158955
-0.166664
-0.173676
-0.179956
-0.185474
-0.190204
-0.194126
-0.197221
-0.199474
-0.200874
-0.20141
-0.201073
-0.199857
-0.197757
-0.194768
-0.190887
-0.186112
-0.180442
-0.173876
-0.166416
-0.158062
-0.148819
-0.138689
-0.12768
-0.115798
-0.103052
-0.0894516
-0.0750108
-0.0597437
-0.0436676
-0.026802
-0.00916903
0.00920632
0.0282962
0.0480697
0.0684928
0.0895282
0.111135
0.133271
0.155887
0.178933
0.202355
0.226097
0.250098
0.274296
0.298623
0.323011
0.347389
0.371685
0.395822
0.419723
0.443312
0.466509
0.489234
0.511409
0.532955
0.553794
0.57385
0.593047
0.611313
0.628581
0.644782
0.659856
0.673745
0.686397
0.697763
0.707803
0.716482
0.72377
0.729647
0.734097
0.737113
0.738698
0.738858
0.737613
0.734985
0.731009
0.725727
0.719187
0.711447
0.702574
0.692639
0.681725
0.669918
0.657314
0.644014
0.630126
0.615763
0.601046
0.586098
0.571047
0.556028
0.541178
0.526635
0.512542
0.499043
0.486281
0.474399
0.463537
0.453827
0.445396
0.438355
0.432801
0.428802
0.42638
0.425536
0.426606
0.429813
0.00982818
0.0102691
0.00866005
0.00524326
0.000374969
-0.00577301
-0.0130354
-0.0212335
-0.0301908
-0.0397375
-0.0497124
-0.0599646
-0.0703547
-0.0807556
-0.0910522
-0.101141
-0.110932
-0.120342
-0.129301
-0.137746
-0.145622
-0.152884
-0.159489
-0.165404
-0.170599
-0.175049
-0.178732
-0.181629
-0.183726
-0.18501
-0.18547
-0.185098
-0.183885
-0.181825
-0.178914
-0.175149
-0.170525
-0.165043
-0.1587
-0.151498
-0.143437
-0.134521
-0.124752
-0.114137
-0.102682
-0.0903945
-0.0772856
-0.063367
-0.0486528
-0.0331595
-0.0169059
8.66836e-05
0.0177942
0.0361898
0.0552438
0.0749233
0.0951925
0.116012
0.13734
0.159131
0.181336
0.203904
0.226779
0.249903
0.273215
0.296653
0.320149
0.343636
0.367042
0.390295
0.413322
0.436046
0.458394
0.480287
0.50165
0.522408
0.542484
0.561806
0.580302
0.597902
0.614541
0.630154
0.644683
0.658072
0.670271
0.681234
0.690923
0.699303
0.706348
0.712038
0.716358
0.719302
0.720873
0.721079
0.719938
0.717473
0.713717
0.708712
0.702505
0.695152
0.686718
0.677272
0.666893
0.655665
0.643681
0.631038
0.617838
0.604192
0.590212
0.576017
0.56173
0.547477
0.533387
0.519591
0.506222
0.493414
0.481301
0.470012
0.459678
0.45042
0.442353
0.435583
0.430206
0.426298
0.4239
0.423051
0.424181
0.42761
0.0181125
0.0175517
0.0152954
0.0115033
0.00643389
0.000245704
-0.00691088
-0.0148798
-0.023507
-0.0326439
-0.0421488
-0.051888
-0.0617373
-0.0715825
-0.0813196
-0.0908546
-0.100103
-0.108991
-0.117452
-0.125426
-0.132864
-0.13972
-0.145955
-0.151537
-0.156436
-0.160628
-0.164092
-0.16681
-0.168765
-0.169946
-0.170341
-0.169941
-0.168738
-0.166726
-0.163899
-0.160253
-0.155785
-0.150492
-0.144374
-0.13743
-0.129662
-0.12107
-0.111659
-0.101433
-0.0903981
-0.078562
-0.0659343
-0.0525262
-0.0383511
-0.0234247
-0.00776482
0.0086081
0.0256711
0.0433984
0.0617616
0.0807291
0.100266
0.120336
0.140897
0.161906
0.183316
0.205077
0.227136
0.249438
0.271922
0.294529
0.317194
0.339852
0.362433
0.384869
0.407087
0.429016
0.450581
0.471711
0.49233
0.512365
0.531745
0.550398
0.568256
0.58525
0.601317
0.616395
0.630429
0.643364
0.655152
0.665749
0.675118
0.683226
0.690048
0.695564
0.699762
0.702635
0.704187
0.704426
0.703369
0.70104
0.697471
0.692702
0.686781
0.67976
0.671703
0.662678
0.65276
0.642032
0.630581
0.618502
0.605894
0.59286
0.579511
0.565959
0.55232
0.538714
0.525263
0.512091
0.499322
0.487081
0.475492
0.464677
0.454754
0.445839
0.438037
0.43145
0.426171
0.422285
0.419846
0.418915
0.419949
0.423292
0.0282856
0.0264735
0.0233783
0.0190499
0.0136207
0.00723391
2.60141e-05
-0.00786827
-0.0163159
-0.0251877
-0.0343596
-0.0437144
-0.0531422
-0.0625414
-0.0718191
-0.0808907
-0.08968
-0.0981188
-0.106146
-0.113709
-0.120758
-0.127254
-0.133159
-0.138442
-0.143076
-0.147037
-0.150305
-0.152862
-0.154693
-0.155786
-0.156128
-0.155712
-0.154528
-0.152571
-0.149833
-0.146311
-0.142002
-0.136901
-0.131009
-0.124323
-0.116844
-0.108574
-0.0995151
-0.0896717
-0.0790489
-0.0676537
-0.0554949
-0.0425828
-0.0289302
-0.0145516
0.000536057
0.0163134
0.0327587
0.0498473
0.067552
0.0858427
0.104686
0.124047
0.143885
0.164159
0.184824
0.205832
0.227131
0.248667
0.270384
0.292223
0.314122
0.336016
0.357841
0.379529
0.401009
0.422213
0.443069
0.463505
0.483451
0.502835
0.521587
0.539638
0.556922
0.573372
0.588927
0.603528
0.617118
0.629647
0.641067
0.651337
0.660419
0.668283
0.674904
0.680262
0.684346
0.687151
0.688679
0.688939
0.687948
0.685729
0.682315
0.677742
0.672059
0.665317
0.657576
0.648904
0.639374
0.629064
0.61806
0.606453
0.594338
0.581816
0.56899
0.555969
0.542864
0.529787
0.516856
0.504185
0.491894
0.480097
0.468912
0.458452
0.448828
0.440147
0.432509
0.426012
0.420746
0.416799
0.414233
0.413122
0.413903
0.416895
0.0400153
0.0367776
0.0326931
0.0276922
0.021767
0.0150446
0.00764908
-0.000305293
-0.00870509
-0.0174389
-0.0263994
-0.0354846
-0.0445985
-0.0536516
-0.062562
-0.0712543
-0.0796608
-0.0877198
-0.0953767
-0.102583
-0.109294
-0.115474
-0.121088
-0.126108
-0.130507
-0.134264
-0.13736
-0.139777
-0.141502
-0.142523
-0.142827
-0.142406
-0.141252
-0.139357
-0.136717
-0.133325
-0.129178
-0.124272
-0.118607
-0.112179
-0.104989
-0.0970374
-0.0883267
-0.0788598
-0.0686414
-0.0576776
-0.0459761
-0.0335466
-0.0204006
-0.00655179
0.00798404
0.0231888
0.0390417
0.0555198
0.0725969
0.0902444
0.108431
0.127121
0.146279
0.165863
0.18583
0.206134
0.226725
0.247552
0.268559
0.28969
0.310884
0.332079
0.353212
0.374217
0.395027
0.415573
0.435786
0.455598
0.474938
0.493737
0.511927
0.52944
0.546212
0.562178
0.577278
0.591454
0.604652
0.616821
0.627916
0.637896
0.646724
0.65437
0.660811
0.666027
0.670008
0.672748
0.674249
0.674521
0.67358
0.671448
0.668157
0.663745
0.658257
0.651743
0.644264
0.635882
0.62667
0.616705
0.606068
0.594847
0.583136
0.571029
0.558627
0.546035
0.533356
0.5207
0.508176
0.495895
0.483967
0.472503
0.46161
0.451396
0.441964
0.433415
0.425844
0.419344
0.414003
0.409908
0.407123
0.405727
0.406108
0.408535
0.0529869
0.0482069
0.0430205
0.0372368
0.0307021
0.0235286
0.015829
0.00769867
-0.000767368
-0.00947436
-0.0183305
-0.0272482
-0.0361444
-0.0449418
-0.0535687
-0.0619594
-0.0700539
-0.0777982
-0.0851435
-0.0920464
-0.0984684
-0.104376
-0.109738
-0.114528
-0.118724
-0.122305
-0.125253
-0.127552
-0.129191
-0.130155
-0.130436
-0.130023
-0.12891
-0.127088
-0.124552
-0.121297
-0.117318
-0.112612
-0.107175
-0.101006
-0.0941047
-0.0864703
-0.0781041
-0.0690088
-0.0591879
-0.0486467
-0.037392
-0.0254324
-0.0127784
0.000557554
0.0145608
0.0292145
0.0444994
0.0603934
0.0768722
0.0939084
0.111472
0.12953
0.148047
0.166983
0.186298
0.205946
0.225879
0.246049
0.2664
0.286879
0.307426
0.327983
0.348485
0.36887
0.389073
0.409026
0.428661
0.447912
0.466711
0.484988
0.502678
0.519715
0.536034
0.551573
0.566272
0.580076
0.592929
0.604784
0.615594
0.62532
0.633926
0.641382
0.647665
0.652756
0.656643
0.659323
0.660797
0.661073
0.660168
0.658104
0.654911
0.650627
0.645294
0.638964
0.631694
0.623546
0.61459
0.6049
0.594556
0.583644
0.572252
0.560472
0.548403
0.536143
0.523792
0.511456
0.499237
0.48724
0.475571
0.464334
0.45363
0.44356
0.434222
0.425709
0.418113
0.411521
0.406018
0.401686
0.398592
0.39681
0.396665
0.398362
0.0669128
0.0605163
0.0541468
0.0474938
0.0402574
0.0325366
0.0244348
0.0160296
0.00739877
-0.0013782
-0.0102241
-0.0190647
-0.0278296
-0.0364528
-0.0448729
-0.0530331
-0.0608818
-0.068372
-0.0754616
-0.0821126
-0.0882915
-0.0939682
-0.0991162
-0.103712
-0.107735
-0.111167
-0.113993
-0.116197
-0.117768
-0.118695
-0.118968
-0.118578
-0.117517
-0.115779
-0.113357
-0.110246
-0.106441
-0.101938
-0.0967345
-0.0908269
-0.084214
-0.0768953
-0.068871
-0.0601427
-0.0507133
-0.0405869
-0.0297692
-0.0182677
-0.00609179
0.00674736
0.0202364
0.0343597
0.0490993
0.0644348
0.0803432
0.0967986
0.113772
0.131233
0.149147
0.167477
0.186182
0.205219
0.224543
0.244105
0.263854
0.283735
0.303692
0.323666
0.343598
0.363423
0.383079
0.4025
0.42162
0.440373
0.458691
0.476508
0.493759
0.510377
0.526301
0.541468
0.55582
0.569301
0.581858
0.593442
0.604008
0.613516
0.621932
0.629225
0.635372
0.640355
0.644162
0.646788
0.648234
0.64851
0.64763
0.645617
0.6425
0.638314
0.633103
0.626916
0.619808
0.611842
0.603083
0.593606
0.583488
0.57281
0.56166
0.550127
0.538304
0.526287
0.514173
0.502062
0.490052
0.478243
0.466736
0.455628
0.445017
0.434996
0.425658
0.417091
0.409382
0.402613
0.396864
0.392212
0.388722
0.386467
0.385692
0.386532
0.0815325
0.0734757
0.065867
0.0582792
0.0502677
0.0419212
0.0333355
0.0245716
0.0156918
0.00676114
-0.00215667
-0.0110002
-0.0197107
-0.028233
-0.0365155
-0.0445105
-0.0521743
-0.0594672
-0.0663536
-0.0728012
-0.0787813
-0.0842684
-0.0892395
-0.0936746
-0.0975559
-0.100868
-0.103596
-0.105728
-0.107253
-0.108161
-0.108442
-0.108089
-0.107095
-0.105451
-0.103153
-0.100195
-0.0965713
-0.0922777
-0.0873105
-0.0816666
-0.0753438
-0.0683404
-0.0606561
-0.0522914
-0.0432481
-0.0335293
-0.0231396
-0.0120854
-0.00037455
0.0119829
0.0249749
0.0385873
0.0528036
0.0676049
0.0829695
0.0988731
0.115289
0.132187
0.149534
0.167296
0.185433
0.203904
0.222664
0.241667
0.260862
0.280197
0.299617
0.319065
0.338482
0.357805
0.376973
0.395922
0.414586
0.4329
0.450797
0.468213
0.485082
0.50134
0.516924
0.531774
0.54583
0.559038
0.571344
0.5827
0.593062
0.60239
0.610647
0.617806
0.623841
0.628734
0.632473
0.635054
0.636477
0.63675
0.635888
0.633912
0.63085
0.626739
0.621619
0.615538
0.608551
0.600718
0.592105
0.582783
0.572827
0.562317
0.551337
0.539975
0.528319
0.516463
0.504501
0.492527
0.480636
0.468926
0.457489
0.44642
0.43581
0.42575
0.416325
0.40762
0.399716
0.392689
0.386615
0.381566
0.377604
0.374797
0.373308
0.373199
0.0966111
0.0868717
0.077987
0.0694162
0.0605729
0.0515378
0.042401
0.0332086
0.0240084
0.0148521
0.00579104
-0.00312534
-0.0118495
-0.0203363
-0.0285438
-0.0364328
-0.0439677
-0.051116
-0.0578483
-0.0641382
-0.0699619
-0.0752985
-0.0801288
-0.0844364
-0.0882064
-0.0914255
-0.0940819
-0.0961649
-0.0976648
-0.0985726
-0.0988803
-0.0985804
-0.0976658
-0.09613
-0.0939667
-0.0911704
-0.0877357
-0.0836579
-0.0789326
-0.0735561
-0.0675252
-0.0608378
-0.0534924
-0.0454885
-0.0368269
-0.0275096
-0.0175399
-0.00692286
0.00433482
0.0162246
0.0287358
0.0418557
0.0555694
0.0698593
0.0847053
0.100085
0.115972
0.13234
0.149156
0.166386
0.183995
0.20194
0.220181
0.23867
0.25736
0.2762
0.295134
0.314109
0.333065
0.351942
0.370679
0.389212
0.407477
0.42541
0.442945
0.460017
0.476561
0.492514
0.507813
0.522397
0.536208
0.549191
0.561293
0.572466
0.582663
0.591846
0.599979
0.607031
0.612978
0.617802
0.62149
0.624037
0.625441
0.625712
0.624862
0.622913
0.619892
0.615833
0.610777
0.604771
0.597868
0.590126
0.581611
0.572391
0.562539
0.552135
0.54126
0.529998
0.518437
0.506666
0.494776
0.482858
0.471005
0.459308
0.447857
0.436742
0.42605
0.415867
0.406275
0.397352
0.389175
0.381816
0.375346
0.369828
0.365326
0.361902
0.359632
0.358507
0.111936
0.100507
0.0903244
0.0807363
0.0710184
0.0612454
0.0515032
0.0418246
0.032244
0.022801
0.0135352
0.00448497
-0.00431249
-0.012822
-0.0210104
-0.0288473
-0.0363045
-0.0433565
-0.0499805
-0.0561556
-0.0618632
-0.0670866
-0.0718111
-0.0760236
-0.0797122
-0.0828665
-0.0854767
-0.0875341
-0.0890303
-0.089958
-0.0903098
-0.0900791
-0.0892593
-0.0878441
-0.0858274
-0.0832035
-0.0799668
-0.0761121
-0.0716346
-0.0665299
-0.0607941
-0.0544241
-0.0474174
-0.0397726
-0.0314892
-0.0225681
-0.0130113
-0.00282252
0.00799295
0.0194279
0.0314734
0.044118
0.0573484
0.0711485
0.0854999
0.100382
0.11577
0.131637
0.147955
0.16469
0.181807
0.199268
0.21703
0.23505
0.253281
0.271672
0.290171
0.308723
0.327271
0.345755
0.364115
0.382288
0.40021
0.417818
0.435046
0.45183
0.468104
0.483806
0.498873
0.513244
0.526861
0.539667
0.551611
0.562642
0.572716
0.581792
0.589833
0.596809
0.602695
0.607472
0.611126
0.61365
0.615045
0.615316
0.614478
0.612549
0.609556
0.605532
0.600518
0.594559
0.587707
0.580019
0.571558
0.562392
0.552594
0.54224
0.531408
0.520183
0.508649
0.496892
0.485001
0.473064
0.461171
0.449408
0.437865
0.426625
0.415774
0.40539
0.395554
0.38634
0.377819
0.370059
0.363125
0.357076
0.351974
0.347877
0.344776
0.342587
0.127314
0.1142
0.102708
0.0920796
0.0814558
0.070907
0.0605163
0.0503045
0.0402937
0.0305124
0.0209893
0.0117527
0.00282972
-0.00575367
-0.0139731
-0.0218062
-0.0292323
-0.0362327
-0.0427907
-0.0488911
-0.0545204
-0.0596665
-0.0643186
-0.0684674
-0.0721041
-0.0752208
-0.0778103
-0.0798655
-0.0813801
-0.0823477
-0.0827623
-0.0826178
-0.0819082
-0.0806277
-0.0787701
-0.0763296
-0.0733006
-0.0696774
-0.0654546
-0.0606271
-0.0551903
-0.04914
-0.0424729
-0.0351864
-0.0272788
-0.0187497
-0.00959977
0.000168648
0.0105517
0.0215437
0.0331372
0.0453224
0.0580875
0.0714181
0.0852973
0.0997057
0.114621
0.130018
0.145869
0.162142
0.178804
0.195817
0.213142
0.230735
0.24855
0.266539
0.284649
0.302828
0.321018
0.339161
0.357196
0.375063
0.392696
0.410034
0.427009
0.443559
0.459618
0.475123
0.49001
0.50422
0.517692
0.53037
0.542201
0.553135
0.563126
0.572132
0.580117
0.587049
0.592901
0.597654
0.601294
0.603812
0.605208
0.605487
0.60466
0.602748
0.599775
0.595774
0.590783
0.584847
0.578017
0.57035
0.561906
0.552753
0.542961
0.532604
0.521762
0.510514
0.498944
0.487137
0.475177
0.463152
0.451146
0.439247
0.427537
0.416099
0.405014
0.394359
0.384208
0.374633
0.365702
0.357478
0.350021
0.343385
0.33763
0.332816
0.328843
0.325556
0.142568
0.12778
0.114976
0.103294
0.0917428
0.0803899
0.0693172
0.0585344
0.0480527
0.0378901
0.0280655
0.0185973
0.00950346
0.000801106
-0.00749379
-0.0153665
-0.0228036
-0.0297932
-0.0363243
-0.0423874
-0.047974
-0.0530767
-0.0576887
-0.0618041
-0.0654174
-0.0685235
-0.0711174
-0.0731942
-0.0747491
-0.0757772
-0.0762734
-0.0762327
-0.0756496
-0.0745183
-0.0728332
-0.0705883
-0.0677776
-0.064395
-0.0604347
-0.0558908
-0.0507579
-0.0450307
-0.038705
-0.031777
-0.0242438
-0.0161035
-0.00735559
0.00199916
0.0119584
0.022518
0.033672
0.0454124
0.0577288
0.0706087
0.0840367
0.097995
0.112463
0.127417
0.14283
0.158674
0.174914
0.191517
0.208442
0.225648
0.24309
0.26072
0.278488
0.29634
0.314221
0.332073
0.349835
0.367447
0.384844
0.401964
0.418741
0.43511
0.451007
0.466367
0.481128
0.495226
0.508603
0.521201
0.532966
0.543846
0.553796
0.562773
0.570738
0.577658
0.583507
0.588263
0.59191
0.59444
0.595851
0.596146
0.595337
0.593442
0.590485
0.586497
0.581515
0.575584
0.568753
0.561077
0.552617
0.543438
0.53361
0.523205
0.512302
0.500978
0.489315
0.477397
0.465306
0.453127
0.440944
0.428839
0.416895
0.405191
0.393804
0.38281
0.372279
0.36228
0.352877
0.344131
0.336095
0.328821
0.32237
0.3168
0.311925
0.307518
0.157535
0.14109
0.126979
0.114236
0.101743
0.0895661
0.0777859
0.0664025
0.0554169
0.0448377
0.0346744
0.0249362
0.0156324
0.00677173
-0.00163786
-0.00958901
-0.0170753
-0.0240909
-0.0306311
-0.0366918
-0.0422693
-0.0473606
-0.0519632
-0.0560745
-0.0596923
-0.062814
-0.0654373
-0.0675591
-0.0691764
-0.0702857
-0.0708831
-0.0709643
-0.0705243
-0.0695578
-0.0680592
-0.0660226
-0.0634416
-0.0603099
-0.0566208
-0.0523679
-0.0475446
-0.0421451
-0.0361637
-0.0295955
-0.0224363
-0.0146829
-0.00633333
0.00261324
0.012156
0.0222924
0.0330181
0.0443268
0.0562099
0.0686563
0.0816524
0.0951821
0.109226
0.123763
0.138767
0.154211
0.170063
0.186289
0.202851
0.219708
0.236818
0.254132
0.271601
0.289172
0.306791
0.3244
0.341938
0.359346
0.376558
0.393513
0.410143
0.426385
0.442172
0.45744
0.472125
0.486163
0.499495
0.512061
0.523807
0.53468
0.544632
0.553619
0.561602
0.568546
0.574423
0.57921
0.58289
0.585453
0.586896
0.587221
0.586438
0.584563
0.581621
0.57764
0.572658
0.566717
0.559865
0.552157
0.543652
0.534415
0.524513
0.514019
0.503009
0.49156
0.479753
0.467668
0.455389
0.442997
0.430574
0.418202
0.405959
0.393925
0.382173
0.370777
0.359805
0.349323
0.339392
0.330069
0.321407
0.31345
0.306263
0.299904
0.294104
0.288563
0.172065
0.153983
0.138574
0.124769
0.111327
0.0983115
0.0858054
0.0737988
0.0622834
0.0512588
0.040726
0.0306855
0.0211382
0.012085
0.00352619
-0.00453787
-0.0121074
-0.0191829
-0.0257652
-0.0318556
-0.0374553
-0.0425657
-0.0471881
-0.0513234
-0.0549726
-0.0581358
-0.060813
-0.0630033
-0.0647052
-0.0659167
-0.066635
-0.0668565
-0.0665769
-0.0657913
-0.0644942
-0.0626795
-0.0603406
-0.0574706
-0.0540625
-0.0501087
-0.0456022
-0.0405357
-0.0349026
-0.0286967
-0.0219125
-0.0145454
-0.00659164
0.00195092
0.0110831
0.0208041
0.0311113
0.042
0.0534634
0.0654921
0.0780742
0.0911952
0.104838
0.118981
0.133603
0.148675
0.164169
0.180051
0.196284
0.21283
0.229645
0.246684
0.263896
0.281231
0.298633
0.316046
0.333409
0.350661
0.367739
0.384579
0.401115
0.417281
0.433011
0.448239
0.4629
0.476929
0.490266
0.502851
0.514625
0.525537
0.535536
0.544576
0.552616
0.559621
0.56556
0.570409
0.57415
0.57677
0.578265
0.578636
0.57789
0.576045
0.57312
0.569146
0.564157
0.558196
0.551308
0.543549
0.534975
0.525651
0.515643
0.505023
0.493866
0.482248
0.470248
0.457947
0.445426
0.432765
0.420046
0.407347
0.394748
0.382324
0.370148
0.358292
0.346821
0.335801
0.32529
0.315342
0.306008
0.297328
0.289371
0.282196
0.275451
0.268768
0.186014
0.166321
0.149625
0.134762
0.120367
0.106507
0.093262
0.0806156
0.0685502
0.0570575
0.0461299
0.03576
0.0259408
0.0166655
0.00792739
-0.000280051
-0.00796341
-0.0151292
-0.021784
-0.027934
-0.0335852
-0.0387433
-0.0434133
-0.0475997
-0.0513063
-0.0545363
-0.0572916
-0.0595735
-0.0613822
-0.062717
-0.0635762
-0.063957
-0.0638557
-0.0632677
-0.0621876
-0.0606092
-0.0585255
-0.0559293
-0.0528128
-0.0491677
-0.0449858
-0.040259
-0.0349795
-0.0291396
-0.0227325
-0.0157521
-0.00819317
-5.18464e-05
0.00867438
0.0179864
0.0278833
0.0383621
0.0494178
0.0610428
0.073227
0.0859576
0.0992187
0.112992
0.127255
0.141982
0.157147
0.172715
0.188654
0.204922
0.22148
0.238282
0.255278
0.272419
0.289648
0.30691
0.324145
0.34129
0.358284
0.37506
0.391552
0.407694
0.423418
0.438658
0.453347
0.467419
0.480813
0.493465
0.505318
0.516315
0.526407
0.535544
0.543684
0.550789
0.556828
0.561773
0.565605
0.568309
0.56988
0.570316
0.569625
0.56782
0.564921
0.560956
0.555959
0.549971
0.543037
0.535211
0.526549
0.517114
0.506973
0.496195
0.484854
0.473027
0.460793
0.448229
0.435417
0.422437
0.409368
0.39629
0.383278
0.370409
0.357754
0.345383
0.333361
0.321751
0.31061
0.299993
0.289944
0.280506
0.271748
0.263733
0.256029
0.248197
0.199251
0.177971
0.160004
0.14409
0.128746
0.114036
0.100045
0.0867473
0.0741171
0.0621383
0.0507957
0.040074
0.0299589
0.0204363
0.0114928
0.00311508
-0.00470947
-0.0119932
-0.0187481
-0.0249853
-0.0307153
-0.035948
-0.0406921
-0.0449555
-0.048745
-0.0520661
-0.0549234
-0.0573199
-0.0592576
-0.060737
-0.0617574
-0.0623169
-0.0624123
-0.0620392
-0.0611924
-0.0598654
-0.0580511
-0.0557416
-0.0529283
-0.0496022
-0.0457542
-0.041375
-0.0364554
-0.0309865
-0.0249601
-0.0183683
-0.0112045
-0.0034631
0.00486016
0.0137679
0.0232611
0.0333385
0.043997
0.0552307
0.0670313
0.0793878
0.0922859
0.105709
0.119636
0.134044
0.148905
0.16419
0.179864
0.195889
0.212225
0.228826
0.245646
0.262633
0.279733
0.296888
0.31404
0.331127
0.348083
0.364845
0.381344
0.397513
0.413284
0.428587
0.443357
0.457525
0.471026
0.483797
0.495779
0.506912
0.517144
0.526424
0.534708
0.541956
0.548134
0.553212
0.557169
0.559989
0.561662
0.562188
0.56157
0.559821
0.556959
0.553011
0.54801
0.541993
0.535007
0.527104
0.518339
0.508774
0.498474
0.487511
0.475956
0.463885
0.451376
0.438508
0.425361
0.412015
0.398548
0.385039
0.371564
0.358198
0.345012
0.332075
0.319452
0.307204
0.295389
0.284059
0.273259
0.263027
0.253441
0.244565
0.235888
0.226904
0.21165
0.18881
0.16959
0.152635
0.136346
0.120788
0.106047
0.0920908
0.0788852
0.0664068
0.0546331
0.0435415
0.0331106
0.0233194
0.0141477
0.00557613
-0.00241399
-0.00984064
-0.0167209
-0.0230707
-0.0289052
-0.0342379
-0.0390812
-0.0434464
-0.0473431
-0.0507795
-0.0537622
-0.0562962
-0.0583849
-0.0600302
-0.0612324
-0.0619903
-0.0623013
-0.0621612
-0.0615647
-0.0605052
-0.0589752
-0.0569662
-0.0544689
-0.0514735
-0.0479696
-0.043947
-0.039395
-0.0343035
-0.0286626
-0.0224629
-0.0156961
-0.00835484
-0.000433139
0.00807351
0.0171679
0.0268506
0.0371204
0.0479734
0.0594029
0.0713997
0.0839515
0.0970428
0.110655
0.124766
0.13935
0.154377
0.169816
0.185629
0.201776
0.218213
0.234894
0.251766
0.268778
0.28587
0.302984
0.320057
0.337025
0.353821
0.370377
0.386625
0.402493
0.417914
0.432817
0.447133
0.460795
0.473739
0.4859
0.49722
0.507642
0.517115
0.52559
0.533026
0.539384
0.544636
0.548755
0.551724
0.553532
0.554175
0.553654
0.551981
0.549173
0.545253
0.540254
0.534213
0.527173
0.519186
0.510307
0.500597
0.490121
0.478949
0.467152
0.454806
0.441989
0.42878
0.415257
0.401501
0.387591
0.373605
0.359619
0.345708
0.331943
0.318393
0.305121
0.292191
0.279658
0.267575
0.255987
0.244932
0.23449
0.224734
0.215071
0.204931
0.223091
0.19872
0.178266
0.160282
0.143056
0.126654
0.111164
0.0965448
0.0827569
0.0697693
0.0575523
0.0460765
0.0353134
0.0252354
0.0158162
0.00703005
-0.00114736
-0.0087394
-0.0157681
-0.0222542
-0.0282168
-0.0336734
-0.03864
-0.0431309
-0.0471585
-0.0507336
-0.0538647
-0.0565587
-0.0588205
-0.0606532
-0.0620581
-0.0630347
-0.0635807
-0.0636921
-0.0633636
-0.0625885
-0.0613587
-0.0596651
-0.0574976
-0.0548455
-0.0516974
-0.0480417
-0.0438665
-0.0391601
-0.0339111
-0.0281084
-0.0217421
-0.0148029
-0.00728307
0.000823829
0.00952243
0.0188154
0.0287033
0.039184
0.050253
0.0619027
0.0741226
0.086899
0.100215
0.11405
0.128379
0.143175
0.158405
0.174035
0.190025
0.206332
0.222909
0.239706
0.256668
0.27374
0.290859
0.307965
0.324991
0.34187
0.358533
0.37491
0.390929
0.40652
0.421609
0.436128
0.450005
0.463175
0.47557
0.48713
0.497795
0.507511
0.516227
0.523898
0.530484
0.535952
0.540275
0.543432
0.545409
0.5462
0.545805
0.544232
0.541497
0.537623
0.532638
0.526579
0.519489
0.511417
0.502418
0.492553
0.481886
0.470486
0.458424
0.445777
0.432621
0.419036
0.405102
0.390897
0.376503
0.361997
0.347455
0.332954
0.318564
0.304354
0.290391
0.276735
0.263444
0.250571
0.23816
0.226251
0.21493
0.204274
0.193613
0.182313
0.233461
0.207587
0.185919
0.166921
0.148768
0.131529
0.115292
0.10001
0.0856368
0.0721335
0.0594643
0.047593
0.0364845
0.0261048
0.0164212
0.00740241
-0.0009816
-0.00875931
-0.0159576
-0.0226016
-0.0287146
-0.0343177
-0.0394305
-0.04407
-0.0482515
-0.051988
-0.0552903
-0.0581667
-0.0606237
-0.0626655
-0.0642943
-0.06551
-0.0663109
-0.0666932
-0.0666513
-0.0661782
-0.0652654
-0.0639031
-0.0620805
-0.0597857
-0.0570062
-0.0537291
-0.0499412
-0.0456292
-0.04078
-0.0353811
-0.0294204
-0.022887
-0.0157711
-0.00806444
0.000239572
0.00914564
0.0186562
0.0287713
0.0394882
0.0508012
0.0627017
0.0751777
0.0882139
0.101791
0.115887
0.130474
0.145522
0.160997
0.17686
0.193068
0.209576
0.226333
0.243286
0.260376
0.277545
0.294727
0.311858
0.328869
0.345688
0.362246
0.378468
0.394281
0.409612
0.424388
0.438536
0.451987
0.464673
0.476528
0.487491
0.497503
0.506512
0.51447
0.521333
0.527066
0.531637
0.535024
0.53721
0.538185
0.537948
0.536505
0.533868
0.530059
0.525105
0.519041
0.511908
0.503755
0.494636
0.484609
0.47374
0.462097
0.449753
0.436782
0.423261
0.409271
0.394891
0.380203
0.365286
0.350219
0.335081
0.319947
0.304889
0.289978
0.27528
0.260858
0.24677
0.233071
0.219805
0.207013
0.194787
0.183212
0.171542
0.159074
0.242649
0.215302
0.192442
0.172446
0.153379
0.135311
0.118333
0.102391
0.0874306
0.0734083
0.0602808
0.0480056
0.0365411
0.0258472
0.0158851
0.00661779
-0.00198994
-0.00997161
-0.0173588
-0.0241808
-0.0304649
-0.0362361
-0.0415167
-0.046327
-0.0506848
-0.0546052
-0.0581009
-0.0611821
-0.0638564
-0.0661291
-0.0680031
-0.0694791
-0.0705554
-0.0712284
-0.0714924
-0.0713399
-0.070762
-0.0697481
-0.0682864
-0.0663641
-0.0639675
-0.0610822
-0.0576936
-0.0537869
-0.0493473
-0.0443604
-0.0388123
-0.0326902
-0.0259824
-0.0186785
-0.01077
-0.00225001
0.00688585
0.0166396
0.0270107
0.0379952
0.0495865
0.0617744
0.0745453
0.0878816
0.101762
0.116162
0.131051
0.146396
0.16216
0.1783
0.194772
0.211524
0.228504
0.245653
0.262912
0.280215
0.297496
0.314686
0.331712
0.348502
0.36498
0.38107
0.396698
0.411788
0.426264
0.440054
0.453087
0.465295
0.476613
0.486979
0.496338
0.504637
0.51183
0.517878
0.522747
0.52641
0.528848
0.530048
0.530007
0.528727
0.526218
0.5225
0.517598
0.511546
0.504383
0.496157
0.486921
0.476732
0.465656
0.453761
0.441118
0.427804
0.413897
0.399475
0.384621
0.369417
0.353942
0.338279
0.322505
0.306698
0.290932
0.275279
0.259807
0.24458
0.229658
0.215097
0.200944
0.18724
0.174085
0.161572
0.148877
0.135233
0.250549
0.221759
0.197731
0.176754
0.156787
0.137901
0.120189
0.103591
0.0880463
0.0735038
0.0599145
0.0472294
0.0354007
0.0243823
0.0141295
0.00460011
-0.00424652
-0.0124487
-0.0200423
-0.0270611
-0.033536
-0.0394954
-0.0449648
-0.0499673
-0.0545231
-0.0586494
-0.0623607
-0.0656688
-0.0685825
-0.0711081
-0.0732492
-0.0750069
-0.0763798
-0.0773641
-0.0779541
-0.0781419
-0.0779177
-0.0772703
-0.076187
-0.0746538
-0.0726557
-0.070177
-0.0672014
-0.0637126
-0.0596939
-0.0551292
-0.0500027
-0.0442995
-0.0380059
-0.0311094
-0.0235994
-0.015467
-0.00670554
0.00268902
0.0127181
0.02338
0.03467
0.0465797
0.0590973
0.072207
0.0858891
0.10012
0.114871
0.13011
0.145801
0.161901
0.178367
0.195148
0.212191
0.229437
0.246827
0.264294
0.281771
0.299188
0.31647
0.333543
0.35033
0.366753
0.382734
0.398194
0.413057
0.427247
0.440687
0.453309
0.465042
0.475822
0.485589
0.494287
0.501867
0.508286
0.513506
0.517496
0.520235
0.521706
0.521902
0.520823
0.518478
0.514882
0.510059
0.504041
0.496866
0.48858
0.479235
0.468888
0.457603
0.44545
0.432499
0.418828
0.404515
0.389641
0.374287
0.358537
0.342473
0.326179
0.309733
0.293216
0.276704
0.26027
0.243985
0.227916
0.212123