/*--------------------------------*- C++ -*----------------------------------*\
  =========                 |
  \\      /  F ield         | OpenFOAM: The Open Source CFD Toolbox
   \\    /   O peration     | Website:  https://openfoam.org
    \\  /    A nd           | Version:  9
     \\/     M anipulation  |
\*---------------------------------------------------------------------------*/
FoamFile
{
    format      ascii;
    class       surfaceScalarField;
    location    "0.3";
    object      phi;
}
// * * * * * * * * * * * * * * * * * * * * * * * * * * * * * * * * * * * * * //

dimensions      [0 3 -1 0 0 0 0];

internalField   nonuniform List<scalar> 
32512
(
2.49799e-10
-3.01522e-10
1.08919e-09
-8.39396e-10
2.12221e-09
-1.03305e-09
3.07692e-09
-9.54773e-10
3.78338e-09
-7.06449e-10
4.13885e-09
-3.55401e-10
4.08437e-09
5.45376e-11
3.59007e-09
4.94315e-10
2.64528e-09
9.44761e-10
1.25213e-09
1.39315e-09
-5.78765e-10
1.83092e-09
-2.83111e-09
2.25238e-09
-5.48484e-09
2.65374e-09
-8.51747e-09
3.03263e-09
-1.19051e-08
3.38762e-09
-1.56231e-08
3.71802e-09
-1.96467e-08
4.02363e-09
-2.39514e-08
4.30464e-09
-2.85129e-08
4.56152e-09
-3.33078e-08
4.79495e-09
-3.83135e-08
5.00571e-09
-4.35082e-08
5.19467e-09
-4.8871e-08
5.36276e-09
-5.43819e-08
5.5109e-09
-6.00219e-08
5.64003e-09
-6.57729e-08
5.75103e-09
-7.16177e-08
5.84477e-09
-7.75398e-08
5.92206e-09
-8.35234e-08
5.98363e-09
-8.95536e-08
6.03016e-09
-9.56158e-08
6.06225e-09
-1.01696e-07
6.08043e-09
-1.07781e-07
6.08518e-09
-1.13858e-07
6.07687e-09
-1.19914e-07
6.05584e-09
-1.25937e-07
6.02234e-09
-1.31913e-07
5.97658e-09
-1.37832e-07
5.91869e-09
-1.43681e-07
5.84878e-09
-1.49447e-07
5.76689e-09
-1.5512e-07
5.67304e-09
-1.60688e-07
5.5672e-09
-1.66137e-07
5.44934e-09
-1.71456e-07
5.3194e-09
-1.76634e-07
5.17732e-09
-1.81657e-07
5.02301e-09
-1.86513e-07
4.85643e-09
-1.9119e-07
4.6775e-09
-1.95677e-07
4.48622e-09
-1.99959e-07
4.28255e-09
-2.04026e-07
4.06652e-09
-2.07864e-07
3.8382e-09
-2.11462e-07
3.59769e-09
-2.14807e-07
3.34512e-09
-2.17887e-07
3.08072e-09
-2.20692e-07
2.80474e-09
-2.2321e-07
2.51752e-09
-2.25429e-07
2.21943e-09
-2.2734e-07
1.91095e-09
-2.28933e-07
1.59261e-09
-2.30198e-07
1.26502e-09
-2.31127e-07
9.28855e-10
-2.31712e-07
5.8489e-10
-2.31946e-07
2.33957e-10
-2.31823e-07
-1.23028e-10
-2.31338e-07
-4.85074e-10
-2.30486e-07
-8.51117e-10
-2.29266e-07
-1.22002e-09
-2.27676e-07
-1.59058e-09
-2.25714e-07
-1.96154e-09
-2.23383e-07
-2.33156e-09
-2.20683e-07
-2.69928e-09
-2.1762e-07
-3.06326e-09
-2.14198e-07
-3.42204e-09
-2.10424e-07
-3.77412e-09
-2.06306e-07
-4.11799e-09
-2.01854e-07
-4.4521e-09
-1.97079e-07
-4.77492e-09
-1.91994e-07
-5.0849e-09
-1.86614e-07
-5.38052e-09
-1.80953e-07
-5.66028e-09
-1.75031e-07
-5.92271e-09
-1.68864e-07
-6.1664e-09
-1.62474e-07
-6.38996e-09
-1.55882e-07
-6.59212e-09
-1.4911e-07
-6.77165e-09
-1.42183e-07
-6.92741e-09
-1.35125e-07
-7.05838e-09
-1.27961e-07
-7.16362e-09
-1.20719e-07
-7.24232e-09
-1.13425e-07
-7.2938e-09
-1.06107e-07
-7.31749e-09
-9.87945e-08
-7.31297e-09
-9.15145e-08
-7.27997e-09
-8.42962e-08
-7.21834e-09
-7.71681e-08
-7.12812e-09
-7.01586e-08
-7.00948e-09
-6.32958e-08
-6.86274e-09
-5.66074e-08
-6.6884e-09
-5.01204e-08
-6.48707e-09
-4.38608e-08
-6.25957e-09
-3.7854e-08
-6.00684e-09
-3.2124e-08
-5.72998e-09
-2.66938e-08
-5.43025e-09
-2.15847e-08
-5.10906e-09
-1.68168e-08
-4.76798e-09
-1.2408e-08
-4.40872e-09
-8.37487e-09
-4.03316e-09
-4.73154e-09
-3.64335e-09
-1.49009e-09
-3.24149e-09
1.33987e-09
-2.83e-09
3.75138e-09
-2.41153e-09
5.74036e-09
-1.98899e-09
7.306e-09
-1.56563e-09
8.4511e-09
-1.14508e-09
9.18259e-09
-7.31478e-10
9.51223e-09
-3.29638e-10
9.45743e-09
5.47692e-11
9.04249e-09
4.14884e-10
8.30023e-09
7.42203e-10
7.27425e-09
1.02593e-09
6.02222e-09
1.25201e-09
4.62046e-09
1.40177e-09
3.17006e-09
1.45044e-09
1.80371e-09
1.36636e-09
6.93336e-10
1.11023e-09
4.9699e-11
6.43248e-10
4.93104e-11
8.1367e-10
-1.11523e-09
2.4457e-09
-2.47126e-09
4.27746e-09
-2.8646e-09
5.82563e-09
-2.50286e-09
6.7343e-09
-1.61518e-09
6.75897e-09
-3.80106e-10
5.74219e-09
1.07135e-09
3.59154e-09
2.64505e-09
2.62205e-10
4.27415e-09
-4.25605e-09
5.91143e-09
-9.94863e-09
7.52351e-09
-1.67832e-08
9.08697e-09
-2.4715e-08
1.05855e-08
-3.36907e-08
1.20083e-08
-4.36511e-08
1.33481e-08
-5.45338e-08
1.46007e-08
-6.62745e-08
1.57643e-08
-7.8808e-08
1.68382e-08
-9.20699e-08
1.78234e-08
-1.05996e-07
1.87215e-08
-1.20525e-07
1.95347e-08
-1.35597e-07
2.02658e-08
-1.51152e-07
2.09178e-08
-1.67134e-07
2.14936e-08
-1.83491e-07
2.19965e-08
-2.00169e-07
2.24296e-08
-2.1712e-07
2.27958e-08
-2.34296e-07
2.3098e-08
-2.51651e-07
2.33387e-08
-2.69142e-07
2.35206e-08
-2.86725e-07
2.36456e-08
-3.04361e-07
2.37159e-08
-3.22009e-07
2.3733e-08
-3.3963e-07
2.36986e-08
-3.57188e-07
2.36137e-08
-3.74645e-07
2.34794e-08
-3.91965e-07
2.32965e-08
-4.09112e-07
2.30655e-08
-4.2605e-07
2.2787e-08
-4.42744e-07
2.2461e-08
-4.59159e-07
2.20879e-08
-4.75259e-07
2.16675e-08
-4.9101e-07
2.11998e-08
-5.06375e-07
2.06848e-08
-5.2132e-07
2.01222e-08
-5.35809e-07
1.95118e-08
-5.49806e-07
1.88537e-08
-5.63276e-07
1.81476e-08
-5.76183e-07
1.73936e-08
-5.88493e-07
1.65917e-08
-6.00168e-07
1.57421e-08
-6.11175e-07
1.48452e-08
-6.21479e-07
1.39015e-08
-6.31046e-07
1.29118e-08
-6.39842e-07
1.18768e-08
-6.47835e-07
1.07977e-08
-6.54993e-07
9.67589e-09
-6.61287e-07
8.51295e-09
-6.66687e-07
7.31076e-09
-6.71165e-07
6.07144e-09
-6.74698e-07
4.79741e-09
-6.7726e-07
3.49138e-09
-6.78832e-07
2.15633e-09
-6.79394e-07
7.95529e-10
-6.78929e-07
-5.87468e-10
-6.77425e-07
-1.98883e-09
-6.74872e-07
-3.40444e-09
-6.71262e-07
-4.82994e-09
-6.66592e-07
-6.26071e-09
-6.60862e-07
-7.6919e-09
-6.54075e-07
-9.11846e-09
-6.46239e-07
-1.05351e-08
-6.37366e-07
-1.19365e-08
-6.27471e-07
-1.33169e-08
-6.16574e-07
-1.46708e-08
-6.047e-07
-1.59924e-08
-5.91876e-07
-1.72758e-08
-5.78136e-07
-1.85153e-08
-5.63516e-07
-1.9705e-08
-5.48057e-07
-2.08391e-08
-5.31805e-07
-2.19121e-08
-5.1481e-07
-2.29183e-08
-4.97123e-07
-2.38525e-08
-4.78804e-07
-2.47096e-08
-4.59911e-07
-2.54846e-08
-4.4051e-07
-2.6173e-08
-4.20667e-07
-2.67705e-08
-4.00452e-07
-2.72733e-08
-3.79938e-07
-2.7678e-08
-3.59198e-07
-2.79814e-08
-3.38311e-07
-2.81811e-08
-3.17354e-07
-2.82749e-08
-2.96405e-07
-2.82613e-08
-2.75546e-07
-2.81394e-08
-2.54856e-07
-2.79086e-08
-2.34415e-07
-2.7569e-08
-2.14303e-07
-2.71214e-08
-1.94599e-07
-2.65671e-08
-1.75379e-07
-2.59079e-08
-1.5672e-07
-2.51463e-08
-1.38694e-07
-2.42854e-08
-1.21372e-07
-2.33289e-08
-1.04821e-07
-2.2281e-08
-8.91045e-08
-2.11467e-08
-7.42822e-08
-1.99314e-08
-6.04091e-08
-1.86411e-08
-4.75353e-08
-1.72826e-08
-3.57053e-08
-1.58631e-08
-2.49579e-08
-1.43907e-08
-1.53253e-08
-1.28741e-08
-6.83245e-09
-1.13228e-08
5.032e-10
-9.7472e-09
6.67291e-09
-8.15873e-09
1.16774e-08
-6.57014e-09
1.55279e-08
-4.99568e-09
1.82479e-08
-3.4515e-09
1.98745e-08
-1.95619e-09
2.04607e-08
-5.31425e-10
2.00784e-08
7.97085e-10
1.88223e-08
1.99832e-09
1.68138e-08
3.03435e-09
1.42075e-08
3.85822e-09
1.11975e-08
4.41168e-09
8.0242e-09
4.62365e-09
4.97893e-09
4.41179e-09
2.39966e-09
3.69003e-09
6.42267e-10
2.40134e-09
6.91308e-10
1.02632e-09
-2.14159e-09
2.85781e-09
-4.30274e-09
4.70151e-09
-4.70816e-09
5.96794e-09
-3.76913e-09
6.20869e-09
-1.85588e-09
5.09905e-09
7.29491e-10
2.41759e-09
3.75279e-09
-1.97479e-09
7.03745e-09
-8.15292e-09
1.04524e-08
-1.61424e-08
1.39009e-08
-2.59314e-08
1.73126e-08
-3.74804e-08
2.0636e-08
-5.07295e-08
2.38346e-08
-6.56039e-08
2.68827e-08
-8.20189e-08
2.9763e-08
-9.98826e-08
3.24644e-08
-1.19099e-07
3.49808e-08
-1.39571e-07
3.73097e-08
-1.61198e-07
3.94513e-08
-1.83885e-07
4.14079e-08
-2.07533e-07
4.31833e-08
-2.3205e-07
4.47823e-08
-2.57343e-07
4.62106e-08
-2.83323e-07
4.7474e-08
-3.09905e-07
4.85788e-08
-3.37007e-07
4.95311e-08
-3.64548e-07
5.03369e-08
-3.92452e-07
5.10019e-08
-4.20645e-07
5.15317e-08
-4.49055e-07
5.19311e-08
-4.77614e-07
5.22048e-08
-5.06255e-07
5.23568e-08
-5.34913e-07
5.23908e-08
-5.63524e-07
5.23098e-08
-5.92027e-07
5.21165e-08
-6.20361e-07
5.1813e-08
-6.48465e-07
5.14011e-08
-6.76282e-07
5.08822e-08
-7.03752e-07
5.0257e-08
-7.30818e-07
4.95265e-08
-7.5742e-07
4.86908e-08
-7.83503e-07
4.77503e-08
-8.09008e-07
4.67049e-08
-8.33878e-07
4.55544e-08
-8.58054e-07
4.42988e-08
-8.8148e-07
4.29379e-08
-9.04098e-07
4.14715e-08
-9.2585e-07
3.98996e-08
-9.46679e-07
3.82225e-08
-9.66528e-07
3.64404e-08
-9.8534e-07
3.4554e-08
-1.00306e-06
3.25644e-08
-1.01963e-06
3.04726e-08
-1.035e-06
2.82806e-08
-1.04911e-06
2.59903e-08
-1.06192e-06
2.36045e-08
-1.07337e-06
2.11262e-08
-1.08342e-06
1.85592e-08
-1.09201e-06
1.59076e-08
-1.09912e-06
1.31762e-08
-1.10469e-06
1.03704e-08
-1.1087e-06
7.49632e-09
-1.1111e-06
4.56044e-09
-1.11187e-06
1.57002e-09
-1.11099e-06
-1.46714e-09
-1.10844e-06
-4.5426e-09
-1.1042e-06
-7.6474e-09
-1.09826e-06
-1.0772e-08
-1.09061e-06
-1.39063e-08
-1.08126e-06
-1.70398e-08
-1.07022e-06
-2.01615e-08
-1.05749e-06
-2.326e-08
-1.04311e-06
-2.63235e-08
-1.02708e-06
-2.93401e-08
-1.00946e-06
-3.22973e-08
-9.90267e-07
-3.51828e-08
-9.69559e-07
-3.79841e-08
-9.47386e-07
-4.06885e-08
-9.23807e-07
-4.32836e-08
-8.98889e-07
-4.5757e-08
-8.72705e-07
-4.80965e-08
-8.45333e-07
-5.02903e-08
-8.16859e-07
-5.2327e-08
-7.87373e-07
-5.41955e-08
-7.56972e-07
-5.58854e-08
-7.25758e-07
-5.73869e-08
-6.93837e-07
-5.8691e-08
-6.61321e-07
-5.97894e-08
-6.28325e-07
-6.06746e-08
-5.94966e-07
-6.13402e-08
-5.61366e-07
-6.17809e-08
-5.27649e-07
-6.1992e-08
-4.9394e-07
-6.19705e-08
-4.60365e-07
-6.17142e-08
-4.27051e-07
-6.12221e-08
-3.94126e-07
-6.04946e-08
-3.61714e-07
-5.95333e-08
-3.2994e-07
-5.8341e-08
-2.98926e-07
-5.6922e-08
-2.68791e-07
-5.52815e-08
-2.3965e-07
-5.34265e-08
-2.11614e-07
-5.13649e-08
-1.84788e-07
-4.91061e-08
-1.59274e-07
-4.66609e-08
-1.35165e-07
-4.40411e-08
-1.12545e-07
-4.12603e-08
-9.14951e-08
-3.83329e-08
-7.20829e-08
-3.52753e-08
-5.43688e-08
-3.21049e-08
-3.84019e-08
-2.8841e-08
-2.42201e-08
-2.55047e-08
-1.18485e-08
-2.21188e-08
-1.29869e-09
-1.87086e-08
7.43316e-09
-1.5302e-08
1.43678e-08
-1.19303e-08
1.95448e-08
-8.62862e-09
2.30256e-08
-5.43695e-09
2.48956e-08
-2.40148e-09
2.52687e-08
4.23919e-10
2.42913e-08
2.97568e-09
2.21475e-08
5.17815e-09
1.90648e-08
6.94092e-09
1.532e-08
8.15652e-09
1.12433e-08
8.70014e-09
7.22e-09
8.43461e-09
3.68492e-09
7.22484e-09
1.10654e-09
4.98009e-09
1.79778e-09
9.59909e-10
-3.10145e-09
2.51665e-09
-5.85951e-09
3.78745e-09
-5.97896e-09
4.12554e-09
-4.10711e-09
3.03822e-09
-7.68458e-10
1.61005e-10
3.60674e-09
-4.76245e-09
8.67623e-09
-1.18993e-08
1.41743e-08
-2.13446e-08
1.98976e-08
-3.31352e-08
2.56916e-08
-4.7263e-08
3.14404e-08
-6.36847e-08
3.70576e-08
-8.233e-08
4.248e-08
-1.03109e-07
4.76619e-08
-1.25918e-07
5.25715e-08
-1.50641e-07
5.71879e-08
-1.77158e-07
6.14981e-08
-2.05344e-07
6.54957e-08
-2.35072e-07
6.91791e-08
-2.66215e-07
7.25506e-08
-2.98647e-07
7.5615e-08
-3.32244e-07
7.83792e-08
-3.66885e-07
8.08515e-08
-4.02452e-07
8.30411e-08
-4.3883e-07
8.49574e-08
-4.75909e-07
8.66103e-08
-5.13582e-07
8.80094e-08
-5.51744e-07
8.91639e-08
-5.90295e-07
9.00827e-08
-6.29138e-07
9.0774e-08
-6.68178e-07
9.12453e-08
-7.07325e-07
9.15033e-08
-7.46488e-07
9.15541e-08
-7.85581e-07
9.14029e-08
-8.24519e-07
9.1054e-08
-8.63217e-07
9.05113e-08
-9.01594e-07
8.97777e-08
-9.39567e-07
8.88556e-08
-9.77057e-07
8.77468e-08
-1.01398e-06
8.64525e-08
-1.05027e-06
8.49735e-08
-1.08583e-06
8.33103e-08
-1.12058e-06
8.14632e-08
-1.15446e-06
7.94322e-08
-1.18738e-06
7.72172e-08
-1.21926e-06
7.48182e-08
-1.25002e-06
7.22354e-08
-1.27959e-06
6.94689e-08
-1.30789e-06
6.65193e-08
-1.33484e-06
6.33876e-08
-1.36036e-06
6.00751e-08
-1.38438e-06
5.65839e-08
-1.40682e-06
5.29163e-08
-1.42762e-06
4.90757e-08
-1.44669e-06
4.50661e-08
-1.46398e-06
4.08922e-08
-1.47941e-06
3.65596e-08
-1.49293e-06
3.2075e-08
-1.50447e-06
2.74459e-08
-1.51397e-06
2.26808e-08
-1.52139e-06
1.77891e-08
-1.52668e-06
1.27815e-08
-1.52979e-06
7.66949e-09
-1.53068e-06
2.46564e-09
-1.52933e-06
-2.81641e-09
-1.52571e-06
-8.16207e-09
-1.5198e-06
-1.35558e-08
-1.5116e-06
-1.8981e-08
-1.50108e-06
-2.44204e-08
-1.48827e-06
-2.98557e-08
-1.47316e-06
-3.52682e-08
-1.45578e-06
-4.0638e-08
-1.43616e-06
-4.59452e-08
-1.41433e-06
-5.11689e-08
-1.39034e-06
-5.62882e-08
-1.36424e-06
-6.12818e-08
-1.3361e-06
-6.61282e-08
-1.30598e-06
-7.08059e-08
-1.27397e-06
-7.52935e-08
-1.24016e-06
-7.957e-08
-1.20464e-06
-8.36147e-08
-1.16752e-06
-8.74072e-08
-1.12892e-06
-9.09282e-08
-1.08896e-06
-9.41588e-08
-1.04776e-06
-9.70815e-08
-1.00547e-06
-9.96794e-08
-9.62222e-07
-1.01937e-07
-9.1817e-07
-1.03841e-07
-8.73467e-07
-1.05378e-07
-8.28271e-07
-1.06537e-07
-7.82743e-07
-1.07309e-07
-7.37047e-07
-1.07687e-07
-6.91353e-07
-1.07665e-07
-6.45827e-07
-1.0724e-07
-6.00639e-07
-1.0641e-07
-5.55958e-07
-1.05176e-07
-5.1195e-07
-1.0354e-07
-4.68783e-07
-1.01509e-07
-4.26617e-07
-9.90876e-08
-3.85612e-07
-9.6287e-08
-3.4592e-07
-9.31185e-08
-3.07688e-07
-8.95961e-08
-2.71059e-07
-8.57359e-08
-2.36163e-07
-8.15565e-08
-2.03125e-07
-7.70789e-08
-1.7206e-07
-7.2326e-08
-1.43069e-07
-6.73235e-08
-1.16245e-07
-6.20993e-08
-9.16658e-08
-5.66842e-08
-6.93954e-08
-5.11115e-08
-4.94823e-08
-4.54177e-08
-3.19584e-08
-3.96427e-08
-1.68368e-08
-3.38302e-08
-4.11035e-09
-2.80285e-08
6.25046e-09
-2.22912e-08
1.43e-08
-1.66782e-08
2.01204e-08
-1.12573e-08
2.38246e-08
-6.10572e-09
2.55606e-08
-1.31209e-09
2.55154e-08
3.02079e-09
2.39201e-08
6.77336e-09
2.10546e-08
9.80642e-09
1.72521e-08
1.19592e-08
1.29024e-08
1.305e-08
8.45408e-09
1.28828e-08
4.41578e-09
1.12628e-08
1.36284e-09
8.03309e-09
3.16062e-09
7.2011e-10
-3.82146e-09
1.64306e-09
-6.78245e-09
1.88586e-09
-6.22182e-09
7.90456e-10
-3.01171e-09
-2.14656e-09
2.16862e-09
-7.30176e-09
8.76201e-09
-1.49445e-08
1.6319e-08
-2.52539e-08
2.44838e-08
-3.83343e-08
3.2978e-08
-5.42282e-08
4.15856e-08
-7.29284e-08
5.01406e-08
-9.43878e-08
5.85171e-08
-1.18528e-07
6.66206e-08
-1.45248e-07
7.43818e-08
-1.74428e-07
8.17509e-08
-2.05934e-07
8.86939e-08
-2.39625e-07
9.5189e-08
-2.75353e-07
1.01224e-07
-3.12968e-07
1.06794e-07
-3.52318e-07
1.119e-07
-3.93251e-07
1.16548e-07
-4.35618e-07
1.20746e-07
-4.79271e-07
1.24505e-07
-5.24067e-07
1.27837e-07
-5.69865e-07
1.30755e-07
-6.16528e-07
1.33273e-07
-6.63923e-07
1.35405e-07
-7.11921e-07
1.37163e-07
-7.60399e-07
1.3856e-07
-8.09233e-07
1.39608e-07
-8.58306e-07
1.40318e-07
-9.07503e-07
1.407e-07
-9.56711e-07
1.40763e-07
-1.00582e-06
1.40513e-07
-1.05473e-06
1.39959e-07
-1.10332e-06
1.39105e-07
-1.1515e-06
1.37955e-07
-1.19916e-06
1.36515e-07
-1.2462e-06
1.34786e-07
-1.29251e-06
1.3277e-07
-1.33801e-06
1.30469e-07
-1.38258e-06
1.27884e-07
-1.42613e-06
1.25015e-07
-1.46856e-06
1.21864e-07
-1.50978e-06
1.18429e-07
-1.54967e-06
1.14712e-07
-1.58815e-06
1.10713e-07
-1.62511e-06
1.06433e-07
-1.66046e-06
1.01872e-07
-1.69411e-06
9.70337e-08
-1.72596e-06
9.19195e-08
-1.7559e-06
8.6533e-08
-1.78387e-06
8.08785e-08
-1.80975e-06
7.49612e-08
-1.83347e-06
6.87877e-08
-1.85495e-06
6.23655e-08
-1.87409e-06
5.57036e-08
-1.89083e-06
4.88124e-08
-1.90509e-06
4.17037e-08
-1.9168e-06
3.43905e-08
-1.92589e-06
2.68878e-08
-1.93232e-06
1.92116e-08
-1.93604e-06
1.13799e-08
-1.93698e-06
3.41187e-09
-1.93513e-06
-4.67156e-09
-1.93044e-06
-1.28481e-08
-1.9229e-06
-2.10941e-08
-1.9125e-06
-2.93843e-08
-1.89923e-06
-3.76924e-08
-1.88309e-06
-4.59909e-08
-1.86411e-06
-5.42509e-08
-1.8423e-06
-6.24429e-08
-1.81771e-06
-7.05363e-08
-1.79038e-06
-7.84999e-08
-1.76037e-06
-8.63019e-08
-1.72774e-06
-9.39104e-08
-1.69258e-06
-1.01293e-07
-1.65496e-06
-1.08417e-07
-1.61501e-06
-1.1525e-07
-1.57282e-06
-1.21762e-07
-1.52851e-06
-1.2792e-07
-1.48222e-06
-1.33694e-07
-1.4341e-06
-1.39056e-07
-1.38428e-06
-1.43976e-07
-1.33293e-06
-1.48429e-07
-1.28022e-06
-1.52389e-07
-1.22633e-06
-1.55833e-07
-1.17143e-06
-1.58741e-07
-1.11571e-06
-1.61093e-07
-1.05937e-06
-1.62873e-07
-1.00262e-06
-1.64067e-07
-9.45638e-07
-1.64665e-07
-8.88645e-07
-1.64658e-07
-8.31845e-07
-1.64041e-07
-7.75444e-07
-1.62811e-07
-7.19649e-07
-1.60971e-07
-6.64665e-07
-1.58524e-07
-6.10696e-07
-1.55478e-07
-5.5794e-07
-1.51844e-07
-5.06591e-07
-1.47636e-07
-4.56837e-07
-1.42873e-07
-4.08857e-07
-1.37575e-07
-3.62825e-07
-1.31768e-07
-3.18901e-07
-1.2548e-07
-2.77238e-07
-1.18742e-07
-2.37975e-07
-1.1159e-07
-2.01236e-07
-1.04062e-07
-1.67133e-07
-9.62019e-08
-1.35762e-07
-8.8056e-08
-1.07198e-07
-7.96752e-08
-8.15004e-08
-7.11152e-08
-5.87067e-08
-6.24364e-08
-3.88314e-08
-5.37054e-08
-2.18648e-08
-4.49951e-08
-7.77003e-09
-3.6386e-08
3.51937e-09
-2.79677e-08
1.21023e-08
-1.98403e-08
1.81135e-08
-1.2117e-08
2.17273e-08
-4.92581e-09
2.3161e-08
1.58699e-09
2.26799e-08
7.25438e-09
2.06005e-08
1.18857e-08
1.7295e-08
1.52647e-08
1.31944e-08
1.71506e-08
8.79393e-09
1.72833e-08
4.66039e-09
1.53962e-08
1.45366e-09
1.12398e-08
4.61429e-09
3.72917e-10
-4.19433e-09
4.0646e-10
-6.81589e-09
-7.21575e-10
-5.09377e-09
-3.64122e-09
-9.21058e-11
-8.83919e-09
7.3666e-09
-1.66827e-08
1.66055e-08
-2.74366e-08
2.70729e-08
-4.12786e-08
3.83258e-08
-5.83121e-08
5.00116e-08
-7.85785e-08
6.1852e-08
-1.02067e-07
7.36295e-08
-1.28726e-07
8.51761e-08
-1.58469e-07
9.63636e-08
-1.91184e-07
1.07096e-07
-2.26737e-07
1.17304e-07
-2.6498e-07
1.26937e-07
-3.05754e-07
1.35963e-07
-3.48893e-07
1.44363e-07
-3.94225e-07
1.52127e-07
-4.41578e-07
1.59253e-07
-4.90777e-07
1.65748e-07
-5.41651e-07
1.7162e-07
-5.94028e-07
1.76882e-07
-6.47741e-07
1.8155e-07
-7.02627e-07
1.85641e-07
-7.58525e-07
1.89171e-07
-8.15279e-07
1.92159e-07
-8.72738e-07
1.94621e-07
-9.30753e-07
1.96575e-07
-9.8918e-07
1.98035e-07
-1.04788e-06
1.99018e-07
-1.10671e-06
1.99534e-07
-1.16555e-06
1.99597e-07
-1.22425e-06
1.99218e-07
-1.2827e-06
1.98404e-07
-1.34076e-06
1.97164e-07
-1.3983e-06
1.95503e-07
-1.45522e-06
1.93428e-07
-1.51137e-06
1.90942e-07
-1.56665e-06
1.88049e-07
-1.62093e-06
1.8475e-07
-1.6741e-06
1.81047e-07
-1.72602e-06
1.76941e-07
-1.77659e-06
1.72434e-07
-1.82569e-06
1.67526e-07
-1.8732e-06
1.62219e-07
-1.919e-06
1.56512e-07
-1.96297e-06
1.50408e-07
-2.00501e-06
1.43909e-07
-2.04499e-06
1.37019e-07
-2.08282e-06
1.29741e-07
-2.11836e-06
1.2208e-07
-2.15153e-06
1.14044e-07
-2.18221e-06
1.05639e-07
-2.21029e-06
9.68756e-08
-2.23569e-06
8.77652e-08
-2.25831e-06
7.83206e-08
-2.27805e-06
6.85567e-08
-2.29484e-06
5.84903e-08
-2.30859e-06
4.81406e-08
-2.31923e-06
3.75284e-08
-2.3267e-06
2.66768e-08
-2.33093e-06
1.56112e-08
-2.33188e-06
4.35867e-09
-2.3295e-06
-7.05123e-09
-2.32376e-06
-1.85871e-08
-2.31464e-06
-3.02157e-08
-2.30212e-06
-4.19016e-08
-2.2862e-06
-5.3608e-08
-2.2669e-06
-6.52962e-08
-2.24422e-06
-7.69261e-08
-2.21821e-06
-8.84562e-08
-2.1889e-06
-9.9844e-08
-2.15635e-06
-1.11046e-07
-2.12064e-06
-1.22018e-07
-2.08183e-06
-1.32715e-07
-2.04003e-06
-1.43093e-07
-1.99534e-06
-1.53106e-07
-1.94789e-06
-1.6271e-07
-1.89779e-06
-1.7186e-07
-1.84519e-06
-1.80514e-07
-1.79026e-06
-1.88629e-07
-1.73315e-06
-1.96166e-07
-1.67404e-06
-2.03084e-07
-1.61312e-06
-2.09347e-07
-1.55059e-06
-2.14921e-07
-1.48665e-06
-2.19773e-07
-1.42152e-06
-2.23875e-07
-1.35541e-06
-2.27201e-07
-1.28855e-06
-2.29727e-07
-1.22119e-06
-2.31436e-07
-1.15354e-06
-2.32311e-07
-1.08586e-06
-2.32341e-07
-1.01838e-06
-2.3152e-07
-9.51343e-07
-2.29845e-07
-8.84996e-07
-2.27317e-07
-8.19577e-07
-2.23943e-07
-7.55321e-07
-2.19734e-07
-6.9246e-07
-2.14704e-07
-6.31222e-07
-2.08875e-07
-5.71824e-07
-2.02271e-07
-5.14478e-07
-1.94922e-07
-4.59383e-07
-1.86863e-07
-4.06729e-07
-1.78134e-07
-3.56692e-07
-1.68779e-07
-3.09433e-07
-1.58848e-07
-2.65099e-07
-1.48396e-07
-2.23819e-07
-1.37482e-07
-1.85702e-07
-1.26173e-07
-1.50838e-07
-1.14539e-07
-1.19295e-07
-1.02659e-07
-9.11142e-08
-9.06168e-08
-6.6314e-08
-7.85056e-08
-4.48827e-08
-6.64264e-08
-2.67782e-08
-5.44905e-08
-1.1925e-08
-4.28208e-08
-2.11602e-10
-3.15537e-08
8.51286e-09
-2.08415e-08
1.44418e-08
-1.08548e-08
1.78146e-08
-1.78583e-09
1.89203e-08
6.14873e-09
1.81008e-08
1.27051e-08
1.57548e-08
1.76105e-08
1.23425e-08
2.05628e-08
8.39254e-09
2.12334e-08
4.51381e-09
1.92749e-08
1.4211e-09
1.43324e-08
6.03539e-09
-4.00508e-11
-4.15432e-09
-1.07154e-09
-5.78432e-09
-3.82079e-09
-2.34445e-09
-8.86068e-09
4.94779e-09
-1.66394e-08
1.51453e-08
-2.74973e-08
2.74634e-08
-4.16806e-08
4.12563e-08
-5.93538e-08
5.5999e-08
-8.06105e-08
7.12683e-08
-1.05484e-07
8.67252e-08
-1.33955e-07
1.02101e-07
-1.65965e-07
1.17186e-07
-2.01417e-07
1.31816e-07
-2.40188e-07
1.45867e-07
-2.82134e-07
1.59249e-07
-3.27091e-07
1.71894e-07
-3.74885e-07
1.83758e-07
-4.25334e-07
1.94812e-07
-4.78248e-07
2.05041e-07
-5.33436e-07
2.14441e-07
-5.90704e-07
2.23016e-07
-6.49859e-07
2.30775e-07
-7.10711e-07
2.37734e-07
-7.73072e-07
2.43911e-07
-8.36756e-07
2.49325e-07
-9.01582e-07
2.53997e-07
-9.67373e-07
2.57949e-07
-1.03395e-06
2.61203e-07
-1.10116e-06
2.6378e-07
-1.16882e-06
2.65698e-07
-1.23678e-06
2.66976e-07
-1.30488e-06
2.67631e-07
-1.37296e-06
2.67678e-07
-1.44087e-06
2.6713e-07
-1.50847e-06
2.66e-07
-1.5756e-06
2.64296e-07
-1.64212e-06
2.62028e-07
-1.7079e-06
2.59202e-07
-1.77278e-06
2.55824e-07
-1.83663e-06
2.51898e-07
-1.8993e-06
2.47426e-07
-1.96067e-06
2.42413e-07
-2.02059e-06
2.3686e-07
-2.07892e-06
2.30768e-07
-2.13554e-06
2.24139e-07
-2.19029e-06
2.16975e-07
-2.24306e-06
2.09278e-07
-2.2937e-06
2.01051e-07
-2.34209e-06
1.92297e-07
-2.38809e-06
1.83022e-07
-2.43158e-06
1.7323e-07
-2.47243e-06
1.62931e-07
-2.51052e-06
1.52132e-07
-2.54573e-06
1.40846e-07
-2.57794e-06
1.29086e-07
-2.60704e-06
1.16866e-07
-2.63292e-06
1.04206e-07
-2.65549e-06
9.11247e-08
-2.67465e-06
7.76458e-08
-2.6903e-06
6.37948e-08
-2.70237e-06
4.95999e-08
-2.71079e-06
3.50921e-08
-2.71548e-06
2.03053e-08
-2.7164e-06
5.27587e-09
-2.71349e-06
-9.95691e-09
-2.70673e-06
-2.53512e-08
-2.69608e-06
-4.08628e-08
-2.68154e-06
-5.64448e-08
-2.6631e-06
-7.20483e-08
-2.64077e-06
-8.7622e-08
-2.61459e-06
-1.03113e-07
-2.58458e-06
-1.18467e-07
-2.55079e-06
-1.33626e-07
-2.51331e-06
-1.48535e-07
-2.47219e-06
-1.63135e-07
-2.42754e-06
-1.77367e-07
-2.37946e-06
-1.91171e-07
-2.32808e-06
-2.04489e-07
-2.27352e-06
-2.17262e-07
-2.21595e-06
-2.29432e-07
-2.15552e-06
-2.40942e-07
-2.09242e-06
-2.51737e-07
-2.02682e-06
-2.61765e-07
-1.95893e-06
-2.70973e-07
-1.88896e-06
-2.79314e-07
-1.81714e-06
-2.86742e-07
-1.7437e-06
-2.93216e-07
-1.66888e-06
-2.98697e-07
-1.59293e-06
-3.03151e-07
-1.5161e-06
-3.06549e-07
-1.43867e-06
-3.08866e-07
-1.3609e-06
-3.10082e-07
-1.28306e-06
-3.10182e-07
-1.20542e-06
-3.09158e-07
-1.12826e-06
-3.07006e-07
-1.05185e-06
-3.03727e-07
-9.76465e-07
-2.99331e-07
-9.02366e-07
-2.93832e-07
-8.29819e-07
-2.87251e-07
-7.59079e-07
-2.79614e-07
-6.90395e-07
-2.70955e-07
-6.24003e-07
-2.61314e-07
-5.6013e-07
-2.50736e-07
-4.98991e-07
-2.39273e-07
-4.40784e-07
-2.26986e-07
-3.85692e-07
-2.1394e-07
-3.3388e-07
-2.00208e-07
-2.85494e-07
-1.85869e-07
-2.40657e-07
-1.71009e-07
-1.99472e-07
-1.55725e-07
-1.62013e-07
-1.40117e-07
-1.28331e-07
-1.24299e-07
-9.84451e-08
-1.08392e-07
-7.2344e-08
-9.25276e-08
-4.99827e-08
-7.68518e-08
-3.12801e-08
-6.15235e-08
-1.6116e-08
-4.67179e-08
-4.32856e-09
-3.26289e-08
4.28863e-09
-1.9472e-08
9.98974e-09
-7.48697e-09
1.30796e-08
3.05891e-09
1.3917e-08
1.18678e-08
1.29181e-08
1.86093e-08
1.05624e-08
2.29185e-08
7.39995e-09
2.43958e-08
4.06491e-09
2.26099e-08
1.29871e-09
1.70986e-08
7.33409e-09
-4.91976e-10
-3.66238e-09
-2.70558e-09
-3.57069e-09
-7.25387e-09
2.2039e-09
-1.46333e-08
1.23273e-08
-2.5237e-08
2.5749e-08
-3.93645e-08
4.1591e-08
-5.72316e-08
5.91235e-08
-7.89797e-08
7.77471e-08
-1.04684e-07
9.69729e-08
-1.34364e-07
1.16405e-07
-1.67988e-07
1.35725e-07
-2.05484e-07
1.54682e-07
-2.46746e-07
1.73077e-07
-2.91637e-07
1.90759e-07
-3.40002e-07
2.07613e-07
-3.91663e-07
2.23556e-07
-4.46434e-07
2.38528e-07
-5.04115e-07
2.52493e-07
-5.64502e-07
2.65428e-07
-6.27386e-07
2.77325e-07
-6.92557e-07
2.88186e-07
-7.59803e-07
2.98022e-07
-8.28916e-07
3.06847e-07
-8.99688e-07
3.14683e-07
-9.71916e-07
3.21552e-07
-1.0454e-06
3.27479e-07
-1.11994e-06
3.3249e-07
-1.19534e-06
3.36609e-07
-1.27143e-06
3.39862e-07
-1.348e-06
3.42272e-07
-1.42489e-06
3.43862e-07
-1.50191e-06
3.44651e-07
-1.57889e-06
3.44659e-07
-1.65566e-06
3.43902e-07
-1.73205e-06
3.42394e-07
-1.8079e-06
3.40147e-07
-1.88305e-06
3.37173e-07
-1.95732e-06
3.33479e-07
-2.03057e-06
3.29073e-07
-2.10264e-06
3.2396e-07
-2.17335e-06
3.18145e-07
-2.24257e-06
3.11633e-07
-2.31014e-06
3.04424e-07
-2.37589e-06
2.96524e-07
-2.43969e-06
2.87933e-07
-2.50137e-06
2.78655e-07
-2.56078e-06
2.68694e-07
-2.61779e-06
2.58053e-07
-2.67223e-06
2.46738e-07
-2.72396e-06
2.34756e-07
-2.77284e-06
2.22115e-07
-2.81874e-06
2.08826e-07
-2.86151e-06
1.94901e-07
-2.90102e-06
1.80356e-07
-2.93714e-06
1.65207e-07
-2.96975e-06
1.49476e-07
-2.99873e-06
1.33186e-07
-3.02397e-06
1.16364e-07
-3.04536e-06
9.90388e-08
-3.06281e-06
8.12442e-08
-3.07623e-06
6.30166e-08
-3.08553e-06
4.43959e-08
-3.09065e-06
2.54256e-08
-3.09153e-06
6.15238e-09
-3.08811e-06
-1.33735e-08
-3.08036e-06
-3.30986e-08
-3.06826e-06
-5.29665e-08
-3.05179e-06
-7.29175e-08
-3.03095e-06
-9.28893e-08
-3.00575e-06
-1.12817e-07
-2.97623e-06
-1.32633e-07
-2.94243e-06
-1.52268e-07
-2.90441e-06
-1.71651e-07
-2.86223e-06
-1.90709e-07
-2.816e-06
-2.09368e-07
-2.76581e-06
-2.27555e-07
-2.71179e-06
-2.45193e-07
-2.65407e-06
-2.6221e-07
-2.5928e-06
-2.78529e-07
-2.52815e-06
-2.9408e-07
-2.46031e-06
-3.08789e-07
-2.38946e-06
-3.22587e-07
-2.31582e-06
-3.35407e-07
-2.2396e-06
-3.47186e-07
-2.16106e-06
-3.57861e-07
-2.08042e-06
-3.67375e-07
-1.99796e-06
-3.75677e-07
-1.91394e-06
-3.82719e-07
-1.82863e-06
-3.88456e-07
-1.74233e-06
-3.92852e-07
-1.65532e-06
-3.95877e-07
-1.5679e-06
-3.97504e-07
-1.48037e-06
-3.97715e-07
-1.39302e-06
-3.965e-07
-1.30618e-06
-3.93853e-07
-1.22013e-06
-3.89778e-07
-1.13517e-06
-3.84286e-07
-1.05161e-06
-3.77395e-07
-9.69729e-07
-3.69131e-07
-8.89815e-07
-3.59528e-07
-8.12142e-07
-3.48629e-07
-7.36971e-07
-3.36484e-07
-6.64555e-07
-3.23152e-07
-5.9513e-07
-3.08699e-07
-5.28915e-07
-2.93201e-07
-4.66114e-07
-2.76741e-07
-4.0691e-07
-2.59412e-07
-3.51464e-07
-2.41315e-07
-2.99914e-07
-2.22559e-07
-2.52373e-07
-2.03266e-07
-2.08926e-07
-1.83565e-07
-1.69628e-07
-1.63597e-07
-1.34504e-07
-1.43515e-07
-1.03546e-07
-1.23486e-07
-7.67058e-08
-1.03692e-07
-5.39012e-08
-8.43281e-08
-3.50069e-08
-6.56122e-08
-1.98546e-08
-4.77813e-08
-8.22989e-09
-3.10968e-08
1.30086e-10
-1.5847e-08
5.53966e-09
-2.35067e-09
8.36742e-09
9.04014e-09
9.03986e-09
1.79369e-08
8.04661e-09
2.39116e-08
5.9484e-09
2.6494e-08
3.38874e-09
2.51696e-08
1.11241e-09
1.93749e-08
8.44647e-09
-9.65801e-10
-2.69657e-09
-4.4367e-09
-9.97867e-11
-1.09063e-08
8.67351e-09
-2.07832e-08
2.22042e-08
-3.43938e-08
3.93596e-08
-5.19863e-08
5.91836e-08
-7.37367e-08
8.08738e-08
-9.97546e-08
1.03765e-07
-1.30091e-07
1.27309e-07
-1.64743e-07
1.51057e-07
-2.03663e-07
1.74645e-07
-2.46763e-07
1.97782e-07
-2.93924e-07
2.20238e-07
-3.44996e-07
2.41831e-07
-3.99808e-07
2.62426e-07
-4.58174e-07
2.81921e-07
-5.19888e-07
3.00243e-07
-5.84741e-07
3.17345e-07
-6.52511e-07
3.33198e-07
-7.22976e-07
3.47789e-07
-7.95908e-07
3.61118e-07
-8.71081e-07
3.73195e-07
-9.48269e-07
3.84035e-07
-1.02725e-06
3.93661e-07
-1.10779e-06
4.02099e-07
-1.18969e-06
4.09377e-07
-1.27273e-06
4.15524e-07
-1.35669e-06
4.20569e-07
-1.44137e-06
4.24542e-07
-1.52656e-06
4.27469e-07
-1.61208e-06
4.29377e-07
-1.69772e-06
4.3029e-07
-1.78329e-06
4.30229e-07
-1.8686e-06
4.29215e-07
-1.95347e-06
4.27265e-07
-2.03772e-06
4.24393e-07
-2.12116e-06
4.20612e-07
-2.20361e-06
4.15932e-07
-2.2849e-06
4.10364e-07
-2.36485e-06
4.03913e-07
-2.4433e-06
3.96586e-07
-2.52005e-06
3.88388e-07
-2.59495e-06
3.79324e-07
-2.66782e-06
3.69396e-07
-2.7385e-06
3.58609e-07
-2.80681e-06
3.46967e-07
-2.87259e-06
3.34475e-07
-2.93568e-06
3.2114e-07
-2.99591e-06
3.06968e-07
-3.05312e-06
2.91969e-07
-3.10716e-06
2.76155e-07
-3.15788e-06
2.59539e-07
-3.20511e-06
2.42138e-07
-3.24873e-06
2.23971e-07
-3.28858e-06
2.05061e-07
-3.32454e-06
1.85434e-07
-3.35647e-06
1.65119e-07
-3.38426e-06
1.4415e-07
-3.40778e-06
1.22565e-07
-3.42695e-06
1.00406e-07
-3.44165e-06
7.77172e-08
-3.4518e-06
5.45492e-08
-3.45733e-06
3.0956e-08
-3.45817e-06
6.99564e-09
-3.45428e-06
-1.72697e-08
-3.4456e-06
-4.17738e-08
-3.43212e-06
-6.64468e-08
-3.41382e-06
-9.12152e-08
-3.39071e-06
-1.16002e-07
-3.3628e-06
-1.40727e-07
-3.33013e-06
-1.65308e-07
-3.29274e-06
-1.89658e-07
-3.2507e-06
-2.13691e-07
-3.20409e-06
-2.37318e-07
-3.15301e-06
-2.60447e-07
-3.09758e-06
-2.82988e-07
-3.03792e-06
-3.04849e-07
-2.97419e-06
-3.25938e-07
-2.90656e-06
-3.46164e-07
-2.8352e-06
-3.65439e-07
-2.76031e-06
-3.83675e-07
-2.68211e-06
-4.00785e-07
-2.60083e-06
-4.16689e-07
-2.51671e-06
-4.31307e-07
-2.43e-06
-4.44566e-07
-2.34099e-06
-4.56394e-07
-2.24994e-06
-4.66728e-07
-2.15715e-06
-4.75509e-07
-2.06292e-06
-4.82685e-07
-1.96756e-06
-4.8821e-07
-1.87139e-06
-4.92046e-07
-1.77473e-06
-4.94162e-07
-1.67791e-06
-4.94536e-07
-1.58126e-06
-4.93154e-07
-1.4851e-06
-4.90011e-07
-1.38977e-06
-4.8511e-07
-1.29559e-06
-4.78466e-07
-1.20288e-06
-4.701e-07
-1.11197e-06
-4.60045e-07
-1.02315e-06
-4.48342e-07
-9.36738e-07
-4.35045e-07
-8.53007e-07
-4.20215e-07
-7.72235e-07
-4.03924e-07
-6.94679e-07
-3.86254e-07
-6.20582e-07
-3.67298e-07
-5.50164e-07
-3.4716e-07
-4.83625e-07
-3.25951e-07
-4.21142e-07
-3.03798e-07
-3.62867e-07
-2.80834e-07
-3.08924e-07
-2.57209e-07
-2.59408e-07
-2.3308e-07
-2.14383e-07
-2.08622e-07
-1.73878e-07
-1.8402e-07
-1.37889e-07
-1.59476e-07
-1.0637e-07
-1.3521e-07
-7.92396e-08
-1.11459e-07
-5.63701e-08
-8.84816e-08
-3.75912e-08
-6.65603e-08
-2.2685e-08
-4.60029e-08
-1.13848e-08
-2.71473e-08
-3.37222e-09
-1.03634e-08
1.72544e-09
3.94245e-09
4.3383e-09
1.53241e-08
4.95862e-09
2.32913e-08
4.14768e-09
2.73049e-08
2.54502e-09
2.67722e-08
8.81324e-10
2.10385e-08
9.32774e-09
-1.45065e-09
-1.24588e-09
-6.22435e-09
4.67392e-09
-1.46955e-08
1.71447e-08
-2.71794e-08
3.46882e-08
-4.39284e-08
5.61086e-08
-6.51314e-08
8.03867e-08
-9.09171e-08
1.0666e-07
-1.21357e-07
1.34205e-07
-1.5647e-07
1.62422e-07
-1.96228e-07
1.90815e-07
-2.40562e-07
2.18979e-07
-2.89366e-07
2.46586e-07
-3.42502e-07
2.73374e-07
-3.99807e-07
2.99136e-07
-4.61095e-07
3.23715e-07
-5.26165e-07
3.46991e-07
-5.948e-07
3.68878e-07
-6.66774e-07
3.89319e-07
-7.41854e-07
4.08278e-07
-8.198e-07
4.25736e-07
-9.00373e-07