/*--------------------------------*- C++ -*----------------------------------*\
  =========                 |
  \\      /  F ield         | OpenFOAM: The Open Source CFD Toolbox
   \\    /   O peration     | Website:  https://openfoam.org
    \\  /    A nd           | Version:  9
     \\/     M anipulation  |
\*---------------------------------------------------------------------------*/
FoamFile
{
    format      ascii;
    class       volVectorField;
    location    "0.3";
    object      U;
}
// * * * * * * * * * * * * * * * * * * * * * * * * * * * * * * * * * * * * * //

dimensions      [0 1 -1 0 0 0 0];

internalField   nonuniform List<vector> 
16384
(
(1.14784e-05 -1.50052e-05 0)
(7.84704e-05 -4.55285e-05 0)
(0.000203984 -5.79591e-05 0)
(0.000337541 -5.59461e-05 0)
(0.000447749 -4.54498e-05 0)
(0.000518042 -3.03159e-05 0)
(0.000538686 -1.28332e-05 0)
(0.000504272 5.61467e-06 0)
(0.000412404 2.41962e-05 0)
(0.000262681 4.24102e-05 0)
(5.60174e-05 5.99508e-05 0)
(-0.000205792 7.66334e-05 0)
(-0.000520369 9.23502e-05 0)
(-0.000884954 0.000107044 0)
(-0.00129655 0.000120692 0)
(-0.00175203 0.000133294 0)
(-0.00224823 0.000144866 0)
(-0.00278197 0.000155435 0)
(-0.00335012 0.000165037 0)
(-0.00394963 0.000173712 0)
(-0.00457755 0.000181503 0)
(-0.00523102 0.000188455 0)
(-0.00590733 0.00019461 0)
(-0.00660384 0.000200013 0)
(-0.00731808 0.000204705 0)
(-0.00804765 0.000208726 0)
(-0.00879031 0.000212113 0)
(-0.0095439 0.0002149 0)
(-0.0103063 0.000217119 0)
(-0.0110757 0.000218798 0)
(-0.0118501 0.000219961 0)
(-0.0126276 0.00022063 0)
(-0.0134066 0.000220823 0)
(-0.0141854 0.000220555 0)
(-0.0149623 0.00021984 0)
(-0.0157357 0.000218686 0)
(-0.016504 0.000217101 0)
(-0.0172657 0.000215089 0)
(-0.0180192 0.000212653 0)
(-0.018763 0.000209794 0)
(-0.0194955 0.000206511 0)
(-0.0202153 0.000202802 0)
(-0.0209207 0.000198663 0)
(-0.0216103 0.000194091 0)
(-0.0222825 0.000189081 0)
(-0.0229357 0.00018363 0)
(-0.0235683 0.000177731 0)
(-0.0241789 0.000171382 0)
(-0.0247657 0.00016458 0)
(-0.0253273 0.000157321 0)
(-0.025862 0.000149605 0)
(-0.0263683 0.000141431 0)
(-0.0268446 0.000132802 0)
(-0.0272893 0.000123721 0)
(-0.0277009 0.000114194 0)
(-0.0280779 0.000104228 0)
(-0.0284189 9.38345e-05 0)
(-0.0287224 8.30261e-05 0)
(-0.0289871 7.18184e-05 0)
(-0.0292116 6.02299e-05 0)
(-0.0293947 4.82819e-05 0)
(-0.0295354 3.59989e-05 0)
(-0.0296325 2.34081e-05 0)
(-0.0296851 1.054e-05 0)
(-0.0296924 -2.57197e-06 0)
(-0.0296536 -1.58914e-05 0)
(-0.0295682 -2.93789e-05 0)
(-0.0294357 -4.29922e-05 0)
(-0.0292558 -5.66864e-05 0)
(-0.0290285 -7.04141e-05 0)
(-0.0287537 -8.41254e-05 0)
(-0.0284316 -9.77682e-05 0)
(-0.0280627 -0.000111289 0)
(-0.0276474 -0.000124631 0)
(-0.0271866 -0.000137738 0)
(-0.0266812 -0.000150553 0)
(-0.0261324 -0.000163015 0)
(-0.0255415 -0.000175066 0)
(-0.0249101 -0.000186647 0)
(-0.0242398 -0.000197698 0)
(-0.0235327 -0.000208163 0)
(-0.0227908 -0.000217984 0)
(-0.0220165 -0.000227106 0)
(-0.0212122 -0.000235477 0)
(-0.0203807 -0.000243046 0)
(-0.0195247 -0.000249765 0)
(-0.0186472 -0.000255591 0)
(-0.0177514 -0.000260483 0)
(-0.0168403 -0.000264405 0)
(-0.0159175 -0.000267324 0)
(-0.0149864 -0.000269214 0)
(-0.0140504 -0.000270053 0)
(-0.0131132 -0.000269823 0)
(-0.0121783 -0.000268513 0)
(-0.0112496 -0.000266118 0)
(-0.0103305 -0.000262636 0)
(-0.00942485 -0.000258075 0)
(-0.00853617 -0.000252446 0)
(-0.00766806 -0.000245766 0)
(-0.00682401 -0.000238059 0)
(-0.00600744 -0.000229353 0)
(-0.00522164 -0.000219684 0)
(-0.00446976 -0.000209093 0)
(-0.00375483 -0.000197625 0)
(-0.00307969 -0.000185332 0)
(-0.00244698 -0.000172271 0)
(-0.00185914 -0.000158504 0)
(-0.0013184 -0.0001441 0)
(-0.000826709 -0.000129131 0)
(-0.00038576 -0.000113678 0)
(3.05239e-06 -9.78255e-05 0)
(0.000338661 -8.1669e-05 0)
(0.00062035 -6.53118e-05 0)
(0.000847795 -4.88692e-05 0)
(0.00102111 -3.24711e-05 0)
(0.0011409 -1.62673e-05 0)
(0.00120834 -4.33868e-07 0)
(0.00122526 1.4816e-05 0)
(0.0011943 2.9216e-05 0)
(0.00111905 4.2421e-05 0)
(0.00100435 5.39676e-05 0)
(0.000856564 6.32092e-05 0)
(0.000684173 6.92165e-05 0)
(0.000498419 7.06518e-05 0)
(0.000314078 6.56537e-05 0)
(0.000150575 5.17035e-05 0)
(3.48275e-05 2.64359e-05 0)
(-3.574e-06 -3.57207e-06 0)
(4.34891e-05 -8.38546e-05 0)
(0.000196004 -0.000199717 0)
(0.00043085 -0.000239527 0)
(0.000661414 -0.000219057 0)
(0.000827922 -0.000158351 0)
(0.000893638 -7.23136e-05 0)
(0.000833952 2.87435e-05 0)
(0.00063338 0.000137756 0)
(0.000283552 0.000249928 0)
(-0.000218717 0.000362001 0)
(-0.000872895 0.000471755 0)
(-0.00167579 0.00057768 0)
(-0.00262233 0.000678767 0)
(-0.00370613 0.000774362 0)
(-0.00491991 0.000864066 0)
(-0.00625584 0.000947667 0)
(-0.00770574 0.00102509 0)
(-0.00926131 0.00109636 0)
(-0.0109142 0.00116158 0)
(-0.0126562 0.00122089 0)
(-0.0144793 0.00127449 0)
(-0.0163756 0.00132258 0)
(-0.0183375 0.00136539 0)
(-0.0203576 0.00140315 0)
(-0.022429 0.00143608 0)
(-0.0245448 0.0014644 0)
(-0.0266987 0.00148833 0)
(-0.0288843 0.00150807 0)
(-0.0310957 0.0015238 0)
(-0.0333272 0.00153569 0)
(-0.0355732 0.00154389 0)
(-0.0378285 0.00154854 0)
(-0.0400879 0.00154975 0)
(-0.0423463 0.00154762 0)
(-0.044599 0.00154223 0)
(-0.0468411 0.00153365 0)
(-0.049068 0.00152193 0)
(-0.051275 0.00150711 0)
(-0.0534576 0.00148922 0)
(-0.0556112 0.00146826 0)
(-0.0577313 0.00144424 0)
(-0.0598134 0.00141716 0)
(-0.0618529 0.00138701 0)
(-0.0638455 0.00135378 0)
(-0.0657865 0.00131745 0)
(-0.0676713 0.00127801 0)
(-0.0694956 0.00123543 0)
(-0.0712546 0.00118973 0)
(-0.0729439 0.00114087 0)
(-0.0745589 0.00108887 0)
(-0.076095 0.00103373 0)
(-0.0775478 0.000975469 0)
(-0.0789128 0.000914116 0)
(-0.0801855 0.000849709 0)
(-0.0813618 0.000782303 0)
(-0.0824373 0.000711967 0)
(-0.083408 0.000638785 0)
(-0.0842698 0.000562859 0)
(-0.0850191 0.000484307 0)
(-0.0856521 0.000403267 0)
(-0.0861656 0.000319894 0)
(-0.0865564 0.000234364 0)
(-0.0868216 0.00014687 0)
(-0.0869587 5.76262e-05 0)
(-0.0869654 -3.31344e-05 0)
(-0.0868398 -0.00012516 0)
(-0.0865804 -0.00021818 0)
(-0.0861861 -0.000311907 0)
(-0.0856562 -0.000406035 0)
(-0.0849905 -0.000500244 0)
(-0.0841892 -0.000594198 0)
(-0.0832531 -0.000687548 0)
(-0.0821833 -0.000779933 0)
(-0.0809815 -0.000870982 0)
(-0.0796502 -0.000960318 0)
(-0.078192 -0.00104756 0)
(-0.0766103 -0.00113231 0)
(-0.0749091 -0.00121418 0)
(-0.0730928 -0.00129279 0)
(-0.0711664 -0.00136775 0)
(-0.0691355 -0.00143868 0)
(-0.067006 -0.00150521 0)
(-0.0647846 -0.00156698 0)
(-0.0624784 -0.00162365 0)
(-0.0600949 -0.0016749 0)
(-0.057642 -0.0017204 0)
(-0.0551282 -0.00175989 0)
(-0.0525622 -0.00179309 0)
(-0.0499532 -0.00181978 0)
(-0.0473106 -0.00183974 0)
(-0.0446441 -0.00185282 0)
(-0.0419635 -0.00185886 0)
(-0.0392791 -0.00185776 0)
(-0.0366008 -0.00184945 0)
(-0.0339391 -0.0018339 0)
(-0.0313042 -0.00181111 0)
(-0.0287064 -0.00178113 0)
(-0.0261557 -0.00174404 0)
(-0.0236622 -0.00169997 0)
(-0.0212356 -0.00164908 0)
(-0.0188855 -0.00159157 0)
(-0.0166211 -0.00152768 0)
(-0.0144511 -0.00145769 0)
(-0.0123841 -0.00138192 0)
(-0.0104278 -0.00130074 0)
(-0.00858962 -0.00121453 0)
(-0.00687633 -0.00112375 0)
(-0.00529398 -0.00102885 0)
(-0.00384792 -0.000930377 0)
(-0.00254271 -0.000828885 0)
(-0.00138202 -0.000724996 0)
(-0.000368597 -0.000619387 0)
(0.00049586 -0.000512805 0)
(0.00121081 -0.000406079 0)
(0.00177697 -0.000300142 0)
(0.00219652 -0.000196056 0)
(0.00247327 -9.50515e-05 0)
(0.00261292 1.42025e-06 0)
(0.00262336 9.16124e-05 0)
(0.00251514 0.000173376 0)
(0.00230194 0.000244011 0)
(0.00200123 0.000300066 0)
(0.00163516 0.000337079 0)
(0.00123146 0.000349334 0)
(0.000823799 0.000329849 0)
(0.00045184 0.000270766 0)
(0.000166391 0.000166613 0)
(2.63166e-05 3.47086e-05 0)
(5.73612e-05 -0.000206971 0)
(0.000238509 -0.000433999 0)
(0.000491259 -0.000492014 0)
(0.000708635 -0.000419116 0)
(0.000817372 -0.000252885 0)
(0.000770085 -2.36022e-05 0)
(0.000533024 0.000245816 0)
(8.36279e-05 0.000538501 0)
(-0.000591324 0.000842225 0)
(-0.00149784 0.00114819 0)
(-0.00263646 0.00145008 0)
(-0.00400365 0.00174342 0)
(-0.00559284 0.00202507 0)
(-0.00739524 0.00229285 0)
(-0.00940054 0.00254537 0)
(-0.0115973 0.00278174 0)
(-0.0139735 0.00300154 0)
(-0.0165166 0.00320462 0)
(-0.0192141 0.00339108 0)
(-0.0220533 0.0035612 0)
(-0.0250217 0.00371536 0)
(-0.0281072 0.00385405 0)
(-0.0312979 0.0039778 0)
(-0.0345821 0.00408717 0)
(-0.0379488 0.00418274 0)
(-0.0413871 0.00426506 0)
(-0.0448867 0.0043347 0)
(-0.0484376 0.00439217 0)
(-0.0520301 0.00443797 0)
(-0.055655 0.00447255 0)
(-0.0593032 0.00449631 0)
(-0.0629661 0.00450963 0)
(-0.0666353 0.00451282 0)
(-0.0703025 0.00450615 0)
(-0.0739598 0.00448987 0)
(-0.0775992 0.00446415 0)
(-0.0812132 0.00442915 0)
(-0.084794 0.00438498 0)
(-0.0883342 0.00433172 0)
(-0.0918263 0.00426942 0)
(-0.0952629 0.00419812 0)
(-0.0986367 0.00411781 0)
(-0.10194 0.0040285 0)
(-0.105166 0.00393016 0)
(-0.108307 0.00382277 0)
(-0.111355 0.00370631 0)
(-0.114304 0.00358075 0)
(-0.117145 0.00344609 0)
(-0.119872 0.00330232 0)
(-0.122477 0.00314948 0)
(-0.124953 0.0029876 0)
(-0.127293 0.00281676 0)
(-0.12949 0.00263705 0)
(-0.131535 0.00244862 0)
(-0.133424 0.00225164 0)
(-0.135148 0.00204633 0)
(-0.136702 0.00183295 0)
(-0.13808 0.00161181 0)
(-0.139274 0.00138327 0)
(-0.14028 0.00114774 0)
(-0.141093 0.00090567 0)
(-0.141707 0.000657587 0)
(-0.142118 0.000404054 0)
(-0.142323 0.000145695 0)
(-0.142317 -0.000116815 0)
(-0.142097 -0.00038275 0)
(-0.141663 -0.000651329 0)
(-0.141011 -0.000921727 0)
(-0.140142 -0.00119307 0)
(-0.139054 -0.00146444 0)
(-0.137749 -0.00173487 0)
(-0.136227 -0.00200339 0)
(-0.134491 -0.00226895 0)
(-0.132544 -0.00253052 0)
(-0.130389 -0.00278701 0)
(-0.128031 -0.00303735 0)
(-0.125476 -0.00328042 0)
(-0.12273 -0.00351514 0)
(-0.1198 -0.00374041 0)
(-0.116694 -0.00395515 0)
(-0.113421 -0.00415828 0)
(-0.109991 -0.00434877 0)
(-0.106414 -0.00452562 0)
(-0.102701 -0.00468786 0)
(-0.0988655 -0.00483457 0)
(-0.0949188 -0.0049649 0)
(-0.0908748 -0.00507804 0)
(-0.0867473 -0.00517328 0)
(-0.0825507 -0.00524995 0)
(-0.0783002 -0.00530749 0)
(-0.074011 -0.00534541 0)
(-0.0696987 -0.00536334 0)
(-0.0653795 -0.00536097 0)
(-0.0610693 -0.00533813 0)
(-0.0567844 -0.00529472 0)
(-0.0525411 -0.00523078 0)
(-0.0483555 -0.00514643 0)
(-0.0442437 -0.00504192 0)
(-0.0402215 -0.00491762 0)
(-0.0363042 -0.00477398 0)
(-0.0325069 -0.0046116 0)
(-0.0288442 -0.00443118 0)
(-0.0253298 -0.00423352 0)
(-0.021977 -0.00401955 0)
(-0.0187982 -0.00379031 0)
(-0.015805 -0.00354695 0)
(-0.0130078 -0.00329074 0)
(-0.0104162 -0.00302308 0)
(-0.00803835 -0.00274548 0)
(-0.00588139 -0.00245961 0)
(-0.00395087 -0.00216727 0)
(-0.00225088 -0.00187045 0)
(-0.000783793 -0.00157132 0)
(0.000449843 -0.00127232 0)
(0.00145154 -0.00097615 0)
(0.00222509 -0.000685877 0)
(0.00277687 -0.00040502 0)
(0.00311618 -0.000137666 0)
(0.00325565 0.000111363 0)
(0.00321179 0.000336302 0)
(0.00300559 0.000530174 0)
(0.0026632 0.000684476 0)
(0.00221677 0.000788868 0)
(0.00170516 0.000831049 0)
(0.00117363 0.000797213 0)
(0.000673162 0.000673609 0)
(0.000270076 0.000451899 0)
(5.13622e-05 0.000150049 0)
(5.62433e-05 -0.000340141 0)
(0.000220308 -0.000664987 0)
(0.000421335 -0.000709707 0)
(0.000544303 -0.000541967 0)
(0.000510077 -0.000218907 0)
(0.000265938 0.00021268 0)
(-0.000226696 0.000715977 0)
(-0.000994458 0.0012628 0)
(-0.00205366 0.00183191 0)
(-0.00341233 0.00240743 0)
(-0.00507194 0.00297762 0)
(-0.00702891 0.00353387 0)
(-0.00927574 0.00406993 0)
(-0.011802 0.00458141 0)
(-0.0145951 0.00506528 0)
(-0.0176408 0.00551958 0)
(-0.0209242 0.00594318 0)
(-0.0244292 0.00633556 0)
(-0.0281397 0.00669668 0)
(-0.0320394 0.00702685 0)
(-0.0361121 0.00732666 0)
(-0.0403419 0.00759686 0)
(-0.0447129 0.00783833 0)
(-0.0492099 0.00805204 0)
(-0.053818 0.008239 0)
(-0.0585228 0.00840019 0)
(-0.0633102 0.00853662 0)
(-0.0681669 0.00864922 0)
(-0.0730797 0.00873889 0)
(-0.0780359 0.00880647 0)
(-0.0830234 0.0088527 0)
(-0.0880303 0.00887827 0)
(-0.0930449 0.00888378 0)
(-0.0980561 0.00886974 0)
(-0.103053 0.0088366 0)
(-0.108024 0.00878473 0)
(-0.11296 0.0087144 0)
(-0.117849 0.00862587 0)
(-0.122681 0.00851928 0)
(-0.127446 0.00839476 0)
(-0.132134 0.00825238 0)
(-0.136734 0.00809217 0)
(-0.141237 0.00791415 0)
(-0.145632 0.00771831 0)
(-0.14991 0.00750462 0)
(-0.154059 0.00727307 0)
(-0.158071 0.00702365 0)
(-0.161935 0.00675637 0)
(-0.165641 0.00647127 0)
(-0.169179 0.00616842 0)
(-0.172539 0.00584795 0)
(-0.175712 0.00551001 0)
(-0.178688 0.00515484 0)
(-0.181458 0.00478275 0)
(-0.184012 0.0043941 0)
(-0.186341 0.00398935 0)
(-0.188437 0.00356903 0)
(-0.190292 0.00313377 0)
(-0.191897 0.00268429 0)
(-0.193246 0.00222141 0)
(-0.194331 0.00174605 0)
(-0.195145 0.00125923 0)
(-0.195684 0.000762064 0)
(-0.195941 0.000255784 0)
(-0.195913 -0.00025829 0)
(-0.195596 -0.000778733 0)
(-0.194986 -0.00130403 0)
(-0.194083 -0.00183256 0)
(-0.192885 -0.00236264 0)
(-0.191391 -0.00289248 0)
(-0.189604 -0.00342023 0)
(-0.187524 -0.00394397 0)
(-0.185155 -0.00446171 0)
(-0.182501 -0.00497143 0)
(-0.179567 -0.00547107 0)
(-0.176359 -0.00595852 0)
(-0.172886 -0.00643169 0)
(-0.169154 -0.00688845 0)
(-0.165176 -0.00732671 0)
(-0.16096 -0.00774438 0)
(-0.156519 -0.00813943 0)
(-0.151867 -0.00850986 0)
(-0.147018 -0.00885375 0)
(-0.141985 -0.00916926 0)
(-0.136787 -0.00945463 0)
(-0.131439 -0.00970822 0)
(-0.12596 -0.00992851 0)
(-0.120368 -0.0101141 0)
(-0.114683 -0.0102638 0)
(-0.108924 -0.0103765 0)
(-0.103113 -0.0104512 0)
(-0.0972693 -0.0104873 0)
(-0.091415 -0.0104841 0)
(-0.0855715 -0.0104415 0)
(-0.0797604 -0.0103591 0)
(-0.0740034 -0.010237 0)
(-0.0683221 -0.0100756 0)
(-0.0627377 -0.00987528 0)
(-0.0572713 -0.00963678 0)
(-0.0519434 -0.009361 0)
(-0.0467739 -0.00904911 0)
(-0.0417823 -0.00870245 0)
(-0.0369868 -0.00832261 0)
(-0.0324051 -0.00791141 0)
(-0.0280536 -0.00747087 0)
(-0.0239475 -0.00700324 0)
(-0.0201008 -0.00651102 0)
(-0.016526 -0.00599695 0)
(-0.0132339 -0.00546399 0)
(-0.0102338 -0.00491541 0)
(-0.00753275 -0.00435476 0)
(-0.00513607 -0.00378594 0)
(-0.00304665 -0.00321322 0)
(-0.00126496 -0.00264132 0)
(0.000211304 -0.00207551 0)
(0.00138741 -0.00152171 0)
(0.002272 -0.000986641 0)
(0.00287745 -0.000478014 0)
(0.00322034 -4.77922e-06 0)
(0.00332195 0.000422592 0)
(0.0032089 0.000791759 0)
(0.00291372 0.00108816 0)
(0.00247557 0.00129473 0)
(0.00194077 0.00139197 0)
(0.0013622 0.00135872 0)
(0.000798772 0.00117433 0)
(0.00032948 0.000823905 0)
(6.51787e-05 0.000312936 0)
(4.63993e-05 -0.000451654 0)
(0.000161283 -0.000833211 0)
(0.000256975 -0.000819276 0)
(0.000222328 -0.00050784 0)
(-2.16489e-05 2.3721e-05 0)
(-0.000529484 0.000712051 0)
(-0.00134151 0.00150638 0)
(-0.002486 0.0023669 0)
(-0.00398066 0.00326278 0)
(-0.00583449 0.00417039 0)
(-0.0080494 0.00507177 0)
(-0.0106216 0.00595346 0)
(-0.0135429 0.00680545 0)
(-0.0168015 0.00762049 0)
(-0.0203831 0.00839348 0)
(-0.0242713 0.00912095 0)
(-0.0284485 0.00980077 0)
(-0.0328961 0.0104318 0)
(-0.0375949 0.0110137 0)
(-0.0425254 0.0115466 0)
(-0.0476684 0.0120313 0)
(-0.0530043 0.0124688 0)
(-0.0585143 0.0128603 0)
(-0.0641795 0.0132071 0)
(-0.0699819 0.0135108 0)
(-0.0759037 0.0137727 0)
(-0.0819276 0.0139945 0)
(-0.0880368 0.0141775 0)
(-0.0942152 0.0143231 0)
(-0.100447 0.0144325 0)
(-0.106717 0.0145069 0)
(-0.11301 0.0145474 0)
(-0.119311 0.0145549 0)
(-0.125607 0.0145302 0)
(-0.131883 0.0144741 0)
(-0.138127 0.014387 0)
(-0.144323 0.0142696 0)
(-0.15046 0.014122 0)
(-0.156524 0.0139447 0)
(-0.162502 0.0137379 0)
(-0.168381 0.0135017 0)
(-0.174149 0.0132361 0)
(-0.179792 0.0129412 0)
(-0.185298 0.0126171 0)
(-0.190654 0.0122638 0)
(-0.195848 0.0118811 0)
(-0.200867 0.0114693 0)
(-0.205699 0.0110284 0)
(-0.21033 0.0105583 0)
(-0.214749 0.0100595 0)
(-0.218943 0.00953192 0)
(-0.222901 0.00897606 0)
(-0.22661 0.00839231 0)
(-0.230059 0.00778118 0)
(-0.233237 0.00714333 0)
(-0.236132 0.00647954 0)
(-0.238734 0.0057907 0)
(-0.241033 0.00507787 0)
(-0.243019 0.00434227 0)
(-0.244683 0.00358525 0)
(-0.246016 0.00280832 0)
(-0.247012 0.00201316 0)
(-0.247663 0.00120161 0)
(-0.247962 0.000375682 0)
(-0.247905 -0.000462477 0)
(-0.247487 -0.00131055 0)
(-0.246705 -0.00216606 0)
(-0.245557 -0.00302641 0)
(-0.244042 -0.00388883 0)
(-0.242159 -0.00475047 0)
(-0.239911 -0.00560832 0)
(-0.2373 -0.00645929 0)
(-0.234329 -0.00730019 0)
(-0.231005 -0.00812777 0)
(-0.227333 -0.00893869 0)
(-0.223321 -0.0097296 0)
(-0.21898 -0.0104971 0)
(-0.214319 -0.0112379 0)
(-0.209351 -0.0119485 0)
(-0.20409 -0.0126256 0)
(-0.19855 -0.013266 0)
(-0.192748 -0.0138664 0)
(-0.186701 -0.0144239 0)
(-0.180427 -0.0149355 0)
(-0.173947 -0.0153983 0)
(-0.167282 -0.0158098 0)
(-0.160454 -0.0161675 0)
(-0.153485 -0.0164692 0)
(-0.1464 -0.016713 0)
(-0.139222 -0.0168971 0)
(-0.131978 -0.0170201 0)
(-0.124692 -0.0170808 0)
(-0.117391 -0.0170783 0)
(-0.110102 -0.0170122 0)
(-0.10285 -0.0168821 0)
(-0.0956634 -0.0166882 0)
(-0.0885671 -0.0164309 0)
(-0.0815877 -0.0161111 0)
(-0.0747511 -0.0157299 0)
(-0.0680822 -0.0152887 0)
(-0.0616058 -0.0147895 0)
(-0.0553452 -0.0142344 0)
(-0.0493231 -0.013626 0)
(-0.0435609 -0.0129673 0)
(-0.0380788 -0.0122616 0)
(-0.0328952 -0.0115125 0)
(-0.0280273 -0.0107241 0)
(-0.0234902 -0.0099008 0)
(-0.0192971 -0.0090475 0)
(-0.0154591 -0.00816949 0)
(-0.0119848 -0.00727255 0)
(-0.00888055 -0.00636299 0)
(-0.00614965 -0.00544775 0)
(-0.0037925 -0.00453446 0)
(-0.0018062 -0.00363156 0)
(-0.000184228 -0.00274849 0)
(0.0010839 -0.00189587 0)
(0.00201304 -0.00108574 0)
(0.00262283 -0.000331858 0)
(0.00293822 0.000349945 0)
(0.00298997 0.000941415 0)
(0.00281516 0.00142151 0)
(0.0024578 0.00176616 0)
(0.00196933 0.00194841 0)
(0.00140804 0.00193923 0)
(0.00083902 0.00170945 0)
(0.000350907 0.00123357 0)
(7.03102e-05 0.000497033 0)
(3.17027e-05 -0.000524115 0)
(7.58348e-05 -0.000900877 0)
(2.66626e-05 -0.000771703 0)
(-0.00021391 -0.000261528 0)
(-0.00071979 0.000532934 0)
(-0.00154451 0.00153237 0)
(-0.00272778 0.00267249 0)
(-0.00429749 0.00390204 0)
(-0.00627127 0.00518055 0)
(-0.00865801 0.00647638 0)
(-0.0114594 0.00776501 0)
(-0.0146711 0.00902765 0)
(-0.018284 0.0102501 0)
(-0.0222852 0.0114219 0)
(-0.0266588 0.0125354 0)
(-0.0313866 0.0135853 0)
(-0.0364489 0.0145683 0)
(-0.0418248 0.0154822 0)
(-0.0474924 0.0163264 0)
(-0.0534298 0.0171007 0)
(-0.0596146 0.0178058 0)
(-0.0660247 0.018443 0)
(-0.0726382 0.0190138 0)
(-0.0794332 0.01952 0)
(-0.0863887 0.0199634 0)
(-0.0934839 0.0203461 0)
(-0.100699 0.02067 0)
(-0.108013 0.0209371 0)
(-0.115408 0.0211493 0)
(-0.122865 0.0213082 0)
(-0.130365 0.0214156 0)
(-0.137892 0.0214729 0)
(-0.145427 0.0214814 0)
(-0.152954 0.0214423 0)
(-0.160455 0.0213565 0)
(-0.167915 0.0212249 0)
(-0.175318 0.0210481 0)
(-0.182648 0.0208269 0)
(-0.189888 0.0205614 0)
(-0.197024 0.0202522 0)
(-0.204039 0.0198994 0)
(-0.21092 0.0195032 0)
(-0.217649 0.0190637 0)
(-0.224213 0.018581 0)
(-0.230595 0.0180551 0)
(-0.236782 0.0174861 0)
(-0.242757 0.0168741 0)
(-0.248506 0.0162193 0)
(-0.254015 0.0155218 0)
(-0.259268 0.014782 0)
(-0.264251 0.0140003 0)
(-0.26895 0.0131772 0)
(-0.273351 0.0123133 0)
(-0.27744 0.0114096 0)
(-0.281204 0.010467 0)
(-0.284631 0.00948669 0)
(-0.287707 0.00847005 0)
(-0.29042 0.00741869 0)
(-0.292761 0.00633441 0)
(-0.294718 0.00521923 0)
(-0.296281 0.00407542 0)
(-0.297442 0.00290544 0)
(-0.298192 0.00171202 0)
(-0.298525 0.000498109 0)
(-0.298435 -0.000733129 0)
(-0.297916 -0.0019783 0)
(-0.296965 -0.00323378 0)
(-0.295581 -0.00449577 0)
(-0.293761 -0.00576026 0)
(-0.291506 -0.00702306 0)
(-0.288819 -0.00827981 0)
(-0.285701 -0.00952602 0)
(-0.282159 -0.0107571 0)
(-0.278199 -0.0119682 0)
(-0.273827 -0.0131546 0)
(-0.269055 -0.0143115 0)
(-0.263893 -0.0154339 0)
(-0.258354 -0.016517 0)
(-0.252453 -0.0175558 0)
(-0.246205 -0.0185456 0)
(-0.239628 -0.0194817 0)
(-0.232741 -0.0203595 0)
(-0.225565 -0.0211746 0)
(-0.218121 -0.0219227 0)
(-0.210433 -0.0225997 0)
(-0.202526 -0.023202 0)
(-0.194425 -0.0237261 0)
(-0.186157 -0.0241687 0)
(-0.177751 -0.0245271 0)
(-0.169234 -0.0247987 0)
(-0.160636 -0.0249815 0)
(-0.151988 -0.0250739 0)
(-0.143319 -0.0250745 0)
(-0.134661 -0.0249827 0)
(-0.126044 -0.024798 0)
(-0.1175 -0.0245208 0)
(-0.109059 -0.0241516 0)
(-0.100753 -0.0236916 0)
(-0.0926099 -0.0231426 0)
(-0.0846605 -0.0225066 0)
(-0.076933 -0.0217865 0)
(-0.0694548 -0.0209854 0)
(-0.0622524 -0.0201071 0)
(-0.0553506 -0.019156 0)
(-0.048773 -0.0181368 0)
(-0.0425411 -0.0170549 0)
(-0.0366748 -0.0159163 0)
(-0.0311917 -0.0147274 0)
(-0.0261071 -0.0134953 0)
(-0.0214338 -0.0122278 0)
(-0.0171819 -0.0109334 0)
(-0.0133586 -0.00962121 0)
(-0.00996779 -0.00830132 0)
(-0.00700982 -0.00698479 0)
(-0.00448138 -0.00568377 0)
(-0.00237505 -0.00441177 0)
(-0.000678946 -0.00318381 0)
(0.000623616 -0.00201679 0)
(0.00155456 -0.000929753 0)
(0.00214149 5.57139e-05 0)
(0.00241808 0.000915108 0)
(0.0024246 0.00162066 0)
(0.00220836 0.00214112 0)
(0.00182434 0.00244181 0)
(0.00133472 0.00248515 0)
(0.000809313 0.00223203 0)
(0.000342878 0.00164389 0)
(6.94093e-05 0.000683938 0)
(1.43767e-05 -0.00054704 0)
(-2.63288e-05 -0.000841481 0)
(-0.000248472 -0.000530197 0)
(-0.000730944 0.000239808 0)
(-0.00153879 0.00135456 0)
(-0.00272223 0.00272008 0)
(-0.00431839 0.00425941 0)
(-0.00635315 0.0059104 0)
(-0.00884269 0.00762326 0)
(-0.0117948 0.0093584 0)
(-0.0152102 0.0110847 0)
(-0.0190835 0.0127778 0)
(-0.0234045 0.0144193 0)
(-0.0281591 0.0159949 0)
(-0.0333299 0.0174945 0)
(-0.038897 0.0189106 0)
(-0.0448388 0.0202383 0)
(-0.0511323 0.0214746 0)
(-0.0577536 0.022618 0)
(-0.0646783 0.0236681 0)
(-0.0718816 0.0246255 0)
(-0.0793389 0.0254915 0)
(-0.0870254 0.0262678 0)
(-0.094917 0.0269567 0)
(-0.10299 0.0275605 0)
(-0.11122 0.0280816 0)
(-0.119585 0.0285226 0)
(-0.128062 0.0288858 0)
(-0.13663 0.0291738 0)
(-0.145267 0.0293888 0)
(-0.153952 0.0295328 0)
(-0.162664 0.0296078 0)
(-0.171384 0.0296155 0)
(-0.180093 0.0295574 0)
(-0.18877 0.0294349 0)
(-0.197397 0.029249 0)
(-0.205956 0.0290007 0)
(-0.214428 0.0286908 0)
(-0.222794 0.0283198 0)
(-0.231037 0.0278883 0)
(-0.239139 0.0273965 0)
(-0.247083 0.0268448 0)
(-0.254849 0.0262333 0)
(-0.262422 0.0255623 0)
(-0.269782 0.0248317 0)
(-0.276914 0.0240419 0)
(-0.2838 0.023193 0)
(-0.290423 0.0222853 0)
(-0.296765 0.0213191 0)
(-0.30281 0.0202949 0)
(-0.308541 0.0192135 0)
(-0.313943 0.0180755 0)
(-0.318999 0.0168819 0)
(-0.323694 0.0156341 0)
(-0.328012 0.0143333 0)
(-0.33194 0.0129814 0)
(-0.335462 0.0115802 0)
(-0.338566 0.010132 0)
(-0.341239 0.00863937 0)
(-0.34347 0.00710503 0)
(-0.345247 0.00553215 0)
(-0.34656 0.00392415 0)
(-0.347401 0.00228478 0)
(-0.347762 0.000618087 0)
(-0.347636 -0.00107158 0)
(-0.347018 -0.00277958 0)
(-0.345904 -0.00450097 0)
(-0.344292 -0.00623055 0)
(-0.342181 -0.00796286 0)
(-0.339572 -0.00969221 0)
(-0.336466 -0.0114127 0)
(-0.332868 -0.0131181 0)
(-0.328783 -0.0148023 0)
(-0.32422 -0.0164589 0)
(-0.319186 -0.0180812 0)
(-0.313694 -0.0196628 0)
(-0.307755 -0.0211971 0)
(-0.301386 -0.0226773 0)
(-0.294601 -0.024097 0)
(-0.28742 -0.0254496 0)
(-0.279863 -0.0267289 0)
(-0.271951 -0.0279287 0)
(-0.263707 -0.0290429 0)
(-0.255157 -0.0300658 0)
(-0.246328 -0.0309921 0)
(-0.237246 -0.0318167 0)
(-0.227941 -0.0325348 0)
(-0.218445 -0.0331423 0)
(-0.208787 -0.0336353 0)
(-0.199002 -0.0340104 0)
(-0.189121 -0.034265 0)
(-0.179179 -0.0343967 0)
(-0.169212 -0.0344039 0)
(-0.159252 -0.0342856 0)
(-0.149336 -0.0340414 0)
(-0.139499 -0.0336716 0)
(-0.129776 -0.033177 0)
(-0.1202 -0.0325594 0)
(-0.110806 -0.0318208 0)
(-0.101628 -0.0309645 0)
(-0.092697 -0.0299941 0)
(-0.0840447 -0.0289139 0)
(-0.0757008 -0.0277292 0)
(-0.0676934 -0.0264458 0)
(-0.0600492 -0.0250702 0)
(-0.0527925 -0.0236099 0)
(-0.0459456 -0.0220728 0)
(-0.0395286 -0.0204678 0)
(-0.0335588 -0.0188047 0)
(-0.0280505 -0.017094 0)
(-0.0230153 -0.0153472 0)
(-0.0184612 -0.0135767 0)
(-0.0143927 -0.0117962 0)
(-0.0108104 -0.0100206 0)
(-0.0077108 -0.0082661 0)
(-0.0050859 -0.00655075 0)
(-0.00292291 -0.00489442 0)
(-0.00120386 -0.00331918 0)
(9.47087e-05 -0.0018497 0)
(0.00100219 -0.000513576 0)
(0.00155425 0.000658243 0)
(0.00179323 0.00163112 0)
(0.00176866 0.00236646 0)
(0.00153779 0.00282161 0)
(0.00116545 0.00295001 0)
(0.000724654 0.00270181 0)
(0.000312852 0.00202456 0)
(6.44257e-05 0.000860214 0)
(-4.278e-06 -0.000514009 0)
(-0.00013873 -0.000636795 0)
(-0.000553217 -6.78413e-05 0)
(-0.0013037 0.00102871 0)
(-0.00244367 0.00252431 0)
(-0.0040182 0.00431202 0)
(-0.00606022 0.00630346 0)
(-0.00859219 0.00842642 0)
(-0.0116277 0.0106223 0)
(-0.0151725 0.012844 0)
(-0.0192257 0.0150538 0)
(-0.0237802 0.0172222 0)
(-0.0288246 0.0193259 0)
(-0.0343431 0.0213474 0)
(-0.0403168 0.0232734 0)
(-0.0467243 0.0250944 0)
(-0.0535421 0.0268037 0)
(-0.0607455 0.0283972 0)
(-0.0683085 0.0298725 0)
(-0.0762045 0.0312288 0)
(-0.0844067 0.0324665 0)
(-0.0928881 0.033587 0)
(-0.101622 0.0345921 0)
(-0.110581 0.0354844 0)
(-0.119739 0.0362666 0)
(-0.129071 0.0369416 0)
(-0.138551 0.0375125 0)
(-0.148153 0.0379822 0)
(-0.157855 0.0383537 0)
(-0.16763 0.0386298 0)
(-0.177458 0.038813 0)
(-0.187313 0.0389057 0)
(-0.197175 0.0389101 0)
(-0.20702 0.038828 0)
(-0.216828 0.0386611 0)
(-0.226577 0.0384109 0)
(-0.236246 0.0380786 0)
(-0.245814 0.037665 0)
(-0.255261 0.0371712 0)
(-0.264566 0.0365976 0)
(-0.273709 0.0359447 0)
(-0.28267 0.035213 0)
(-0.291429 0.0344028 0)
(-0.299966 0.0335144 0)
(-0.308262 0.032548 0)
(-0.316298 0.0315038 0)
(-0.324053 0.0303823 0)
(-0.331508 0.0291839 0)
(-0.338645 0.0279092 0)
(-0.345445 0.0265588 0)
(-0.351889 0.0251337 0)
(-0.357959 0.023635 0)
(-0.363638 0.0220642 0)
(-0.368908 0.0204228 0)
(-0.373752 0.0187129 0)
(-0.378155 0.0169366 0)
(-0.3821 0.0150968 0)
(-0.385574 0.0131962 0)
(-0.388562 0.0112383 0)
(-0.391051 0.00922677 0)
(-0.393029 0.00716578 0)
(-0.394485 0.00505981 0)
(-0.39541 0.00291378 0)
(-0.395796 0.000732971 0)
(-0.395635 -0.00147692 0)
(-0.394921 -0.00370985 0)
(-0.393651 -0.00595939 0)
(-0.391823 -0.00821877 0)
(-0.389434 -0.0104809 0)
(-0.386487 -0.0127384 0)
(-0.382985 -0.0149836 0)
(-0.37893 -0.0172086 0)
(-0.374331 -0.0194053 0)
(-0.369196 -0.0215654 0)
(-0.363535 -0.0236805 0)
(-0.357361 -0.0257422 0)
(-0.350687 -0.0277418 0)
(-0.343531 -0.0296709 0)
(-0.33591 -0.0315211 0)
(-0.327846 -0.0332839 0)
(-0.319361 -0.0349513 0)
(-0.310478 -0.0365152 0)
(-0.301223 -0.037968 0)
(-0.291625 -0.0393023 0)
(-0.281713 -0.0405113 0)
(-0.271517 -0.0415883 0)
(-0.261071 -0.0425274 0)
(-0.250407 -0.043323 0)
(-0.239561 -0.0439704 0)
(-0.228569 -0.0444651 0)
(-0.217468 -0.0448037 0)
(-0.206294 -0.0449833 0)
(-0.195088 -0.0450018 0)
(-0.183886 -0.0448579 0)
(-0.172728 -0.0445511 0)
(-0.161653 -0.0440817 0)
(-0.150699 -0.0434509 0)
(-0.139905 -0.0426609 0)
(-0.129307 -0.0417146 0)
(-0.118944 -0.040616 0)
(-0.10885 -0.0393698 0)
(-0.0990594 -0.0379817 0)
(-0.0896061 -0.0364585 0)
(-0.0805209 -0.0348077 0)
(-0.0718332 -0.0330378 0)
(-0.06357 -0.0311585 0)
(-0.0557562 -0.0291801 0)
(-0.0484138 -0.0271143 0)
(-0.0415621 -0.0249734 0)
(-0.035217 -0.0227713 0)
(-0.0293915 -0.0205228 0)
(-0.0240945 -0.0182439 0)
(-0.0193313 -0.0159522 0)
(-0.0151029 -0.0136667 0)
(-0.0114058 -0.0114083 0)
(-0.00823191 -0.00919962 0)
(-0.00556784 -0.0070658 0)
(-0.00339494 -0.00503435 0)
(-0.00168881 -0.00313573 0)
(-0.000418981 -0.00140374 0)
(0.000451389 0.000124143 0)
(0.000965893 0.00140633 0)
(0.00117532 0.00239679 0)
(0.00113825 0.00304478 0)
(0.000920926 0.00329458 0)
(0.000598057 0.00308554 0)
(0.000266835 0.00235168 0)
(5.67502e-05 0.00101615 0)
(-2.35134e-05 -0.000421313 0)
(-0.000257107 -0.000274907 0)
(-0.000876821 0.000634127 0)
(-0.00191368 0.00212892 0)
(-0.0034079 0.00406908 0)
(-0.00539801 0.00633673 0)
(-0.00791143 0.00883343 0)
(-0.0109661 0.011478 0)
(-0.014572 0.0142037 0)
(-0.0187321 0.0169565 0)
(-0.0234429 0.0196925 0)
(-0.0286955 0.0223769 0)
(-0.0344766 0.0249823 0)
(-0.0407686 0.0274873 0)
(-0.047551 0.0298759 0)
(-0.0548006 0.0321361 0)
(-0.0624924 0.0342597 0)
(-0.0705996 0.0362411 0)
(-0.0790945 0.0380772 0)
(-0.0879488 0.0397665 0)
(-0.0971334 0.0413093 0)
(-0.106619 0.0427067 0)
(-0.116378 0.0439609 0)
(-0.126379 0.0450746 0)
(-0.136596 0.0460509 0)
(-0.146999 0.0468932 0)
(-0.157562 0.047605 0)
(-0.168256 0.0481897 0)
(-0.179056 0.048651 0)
(-0.189934 0.048992 0)
(-0.200866 0.0492157 0)
(-0.211826 0.0493252 0)
(-0.22279 0.0493229 0)
(-0.233732 0.0492111 0)
(-0.24463 0.0489919 0)
(-0.255459 0.0486669 0)
(-0.266197 0.0482378 0)
(-0.276819 0.0477057 0)
(-0.287305 0.0470716 0)
(-0.29763 0.0463364 0)
(-0.307773 0.0455007 0)
(-0.317711 0.0445651 0)
(-0.327422 0.04353 0)
(-0.336885 0.0423959 0)
(-0.346077 0.0411631 0)
(-0.354978 0.0398321 0)
(-0.363565 0.0384035 0)
(-0.371818 0.0368779 0)
(-0.379715 0.035256 0)
(-0.387237 0.033539 0)
(-0.394362 0.031728 0)
(-0.401071 0.0298247 0)
(-0.407345 0.0278308 0)
(-0.413164 0.0257486 0)
(-0.41851 0.0235805 0)
(-0.423366 0.0213297 0)
(-0.427715 0.0189993 0)
(-0.431541 0.0165934 0)
(-0.434829 0.0141161 0)
(-0.437564 0.0115722 0)
(-0.439734 0.0089669 0)
(-0.441327 0.00630599 0)
(-0.442333 0.00359564 0)
(-0.442743 0.000842536 0)
(-0.442549 -0.00194617 0)
(-0.441746 -0.00476286 0)
(-0.440328 -0.00759947 0)
(-0.438295 -0.0104475 0)
(-0.435644 -0.0132981 0)
(-0.432378 -0.0161421 0)
(-0.428499 -0.0189697 0)
(-0.424013 -0.0217713 0)
(-0.418927 -0.0245366 0)
(-0.413251 -0.0272553 0)
(-0.406995 -0.0299169 0)
(-0.400174 -0.032511 0)
(-0.392804 -0.0350268 0)
(-0.384903 -0.0374539 0)
(-0.37649 -0.0397816 0)
(-0.367588 -0.0419996 0)
(-0.358222 -0.0440977 0)
(-0.348417 -0.0460662 0)
(-0.338203 -0.0478954 0)
(-0.327609 -0.0495763 0)
(-0.316668 -0.0511001 0)
(-0.305413 -0.0524589 0)
(-0.293879 -0.0536451 0)
(-0.282104 -0.054652 0)
(-0.270125 -0.0554735 0)
(-0.257981 -0.0561042 0)
(-0.245714 -0.0565398 0)
(-0.233362 -0.0567768 0)
(-0.220969 -0.0568125 0)
(-0.208576 -0.0566452 0)
(-0.196226 -0.0562746 0)
(-0.18396 -0.0557008 0)
(-0.171821 -0.0549256 0)
(-0.15985 -0.0539514 0)
(-0.148088 -0.0527821 0)
(-0.136576 -0.0514225 0)
(-0.125352 -0.0498786 0)
(-0.114454 -0.0481576 0)
(-0.103917 -0.0462679 0)
(-0.093776 -0.0442188 0)
(-0.0840628 -0.0420212 0)
(-0.0748071 -0.0396869 0)
(-0.0660358 -0.0372291 0)
(-0.0577731 -0.0346621 0)