/*--------------------------------*- C++ -*----------------------------------*\
  =========                 |
  \\      /  F ield         | OpenFOAM: The Open Source CFD Toolbox
   \\    /   O peration     | Website:  https://openfoam.org
    \\  /    A nd           | Version:  9
     \\/     M anipulation  |
\*---------------------------------------------------------------------------*/
FoamFile
{
    format      ascii;
    class       volScalarField;
    location    "0.7";
    object      p;
}
// * * * * * * * * * * * * * * * * * * * * * * * * * * * * * * * * * * * * * //

dimensions      [0 2 -2 0 0 0 0];

internalField   nonuniform List<scalar> 
16384
(
2.48365e-05
0.00122909
0.00032662
-0.00323954
-0.0092712
-0.0174633
-0.0274643
-0.0389135
-0.0514721
-0.0648351
-0.078733
-0.092929
-0.107216
-0.121416
-0.135373
-0.148957
-0.162053
-0.174567
-0.186416
-0.197532
-0.207859
-0.217349
-0.225963
-0.233671
-0.240445
-0.246266
-0.251116
-0.254982
-0.257855
-0.259726
-0.26059
-0.260443
-0.25928
-0.257099
-0.253899
-0.249679
-0.244438
-0.238178
-0.230899
-0.222604
-0.213294
-0.202973
-0.191646
-0.179319
-0.165999
-0.151696
-0.136421
-0.120188
-0.10301
-0.0849082
-0.0659016
-0.0460146
-0.0252743
-0.00371108
0.0186413
0.0417453
0.0655597
0.0900395
0.115136
0.140796
0.166962
0.193575
0.220569
0.247875
0.275423
0.303137
0.330938
0.358744
0.386472
0.414034
0.441342
0.468306
0.494835
0.520836
0.546218
0.570888
0.594756
0.617731
0.639727
0.660657
0.680441
0.699
0.71626
0.732153
0.746615
0.759589
0.771025
0.780878
0.789113
0.795701
0.800623
0.803868
0.805433
0.805325
0.80356
0.800165
0.795174
0.788633
0.780595
0.771124
0.760294
0.748187
0.734894
0.720515
0.705158
0.688939
0.671984
0.654423
0.636397
0.618052
0.59954
0.581022
0.562662
0.544634
0.527116
0.51029
0.494345
0.479476
0.465879
0.453752
0.443292
0.434686
0.428099
0.423654
0.421381
0.421159
0.422615
0.424732
-0.00114295
4.84071e-05
-0.000986611
-0.00433538
-0.00971836
-0.016929
-0.0257208
-0.0358171
-0.0469436
-0.0588437
-0.0712825
-0.0840492
-0.0969556
-0.109836
-0.122544
-0.134954
-0.146955
-0.158453
-0.169368
-0.17963
-0.189181
-0.197971
-0.205961
-0.213115
-0.219405
-0.224807
-0.229303
-0.232877
-0.235516
-0.237211
-0.237953
-0.237737
-0.236557
-0.234409
-0.231292
-0.227202
-0.22214
-0.216104
-0.209096
-0.201118
-0.19217
-0.182258
-0.171385
-0.159558
-0.146784
-0.133073
-0.118435
-0.102884
-0.0864362
-0.0691083
-0.0509214
-0.0318989
-0.0120673
0.00854377
0.0299014
0.0519694
0.0747077
0.0980731
0.122018
0.146493
0.171442
0.196807
0.222527
0.248537
0.274768
0.301148
0.327603
0.354055
0.380424
0.406628
0.432584
0.458206
0.483407
0.508102
0.532204
0.555625
0.57828
0.600084
0.620957
0.640818
0.659589
0.6772
0.69358
0.708665
0.722397
0.734723
0.745595
0.754975
0.762828
0.76913
0.773863
0.777018
0.778594
0.778599
0.777049
0.773971
0.769397
0.763374
0.755951
0.747192
0.737166
0.725953
0.713638
0.700318
0.686095
0.671081
0.655392
0.639155
0.6225
0.605566
0.588496
0.571439
0.554551
0.53799
0.521922
0.506513
0.491934
0.478358
0.465956
0.454897
0.445342
0.437437
0.431302
0.427012
0.424559
0.423834
0.42473
0.426849
-0.000234714
0.00108717
4.91021e-05
-0.00315871
-0.00815633
-0.0147609
-0.0227717
-0.031959
-0.0420923
-0.0529506
-0.0643275
-0.0760336
-0.0878984
-0.0997691
-0.11151
-0.123
-0.134135
-0.144824
-0.154987
-0.164557
-0.173475
-0.181692
-0.189166
-0.195861
-0.201748
-0.206802
-0.211002
-0.21433
-0.216774
-0.218322
-0.218963
-0.218692
-0.217501
-0.215386
-0.212344
-0.208371
-0.203466
-0.197629
-0.190859
-0.183158
-0.174528
-0.164972
-0.154494
-0.143101
-0.1308
-0.1176
-0.103512
-0.0885492
-0.0727265
-0.0560616
-0.0385747
-0.0202886
-0.00122911
0.0185749
0.0390916
0.0602856
0.0821186
0.104549
0.12753
0.151014
0.174948
0.199276
0.22394
0.248875
0.274017
0.299298
0.324644
0.349983
0.375238
0.400331
0.425181
0.449707
0.473828
0.49746
0.520521
0.542928
0.5646
0.585458
0.605422
0.624418
0.642372
0.659217
0.674886
0.68932
0.702463
0.714265
0.724683
0.733679
0.741222
0.747289
0.751866
0.754943
0.75652
0.756607
0.755221
0.752386
0.748136
0.742514
0.735572
0.727367
0.717969
0.707453
0.695903
0.68341
0.670073
0.655998
0.641297
0.626089
0.6105
0.59466
0.578704
0.562775
0.547017
0.53158
0.516614
0.502276
0.488721
0.476105
0.46458
0.454296
0.44539
0.437986
0.432184
0.428049
0.425578
0.424717
0.425623
0.42831
0.00334115
0.00444531
0.00325141
2.95012e-05
-0.00481467
-0.0111006
-0.0186468
-0.0272508
-0.0367114
-0.0468352
-0.0574391
-0.0683535
-0.0794234
-0.090509
-0.101485
-0.112238
-0.12267
-0.132694
-0.142234
-0.151225
-0.15961
-0.167341
-0.174375
-0.180676
-0.186216
-0.190968
-0.194912
-0.198028
-0.200303
-0.201724
-0.202281
-0.201966
-0.200771
-0.198691
-0.195721
-0.19186
-0.187103
-0.181451
-0.174903
-0.16746
-0.159122
-0.149894
-0.13978
-0.128784
-0.116914
-0.10418
-0.0905906
-0.0761597
-0.0609017
-0.0448335
-0.0279748
-0.0103477
0.00802281
0.0271088
0.0468794
0.0673005
0.088335
0.109942
0.132078
0.154696
0.177745
0.201171
0.224918
0.248924
0.273126
0.297459
0.321854
0.34624
0.370542
0.394686
0.418595
0.442191
0.465394
0.488127
0.510308
0.53186
0.552704
0.572764
0.591966
0.610235
0.627505
0.643707
0.658782
0.67267
0.685319
0.696682
0.706717
0.715389
0.72267
0.728537
0.732977
0.735982
0.737553
0.737699
0.736437
0.733792
0.729798
0.724496
0.717936
0.710174
0.701278
0.691321
0.680383
0.668552
0.655923
0.642599
0.628687
0.6143
0.599559
0.584587
0.569514
0.554473
0.539601
0.525038
0.510927
0.497411
0.484633
0.472737
0.461862
0.452143
0.443703
0.436656
0.431097
0.427097
0.424675
0.423833
0.424904
0.428117
0.00941408
0.00986199
0.00825559
0.00483821
-3.32401e-05
-0.0061867
-0.0134563
-0.0216632
-0.0306306
-0.0401888
-0.0501766
-0.0604427
-0.070848
-0.0812653
-0.0915795
-0.101687
-0.111496
-0.120926
-0.129904
-0.138369
-0.146266
-0.153548
-0.160175
-0.166112
-0.171328
-0.175799
-0.179503
-0.182421
-0.18454
-0.185845
-0.186326
-0.185974
-0.184781
-0.182742
-0.179851
-0.176104
-0.1715
-0.166035
-0.159711
-0.152525
-0.144481
-0.13558
-0.125826
-0.115225
-0.103783
-0.0915076
-0.07841
-0.0645019
-0.0497973
-0.0343126
-0.0180665
-0.00108046
0.0166215
0.0350125
0.0540627
0.0737394
0.0940068
0.114826
0.136154
0.157946
0.180152
0.202722
0.2256
0.248728
0.272045
0.295488
0.31899
0.342482
0.365894
0.389153
0.412186
0.434917
0.45727
0.479169
0.500538
0.5213
0.541381
0.560707
0.579206
0.596809
0.613449
0.629062
0.643591
0.656978
0.669174
0.680134
0.689817
0.698191
0.705229
0.710909
0.715218
0.718151
0.719709
0.7199
0.718743
0.716261
0.712488
0.707463
0.701236
0.693863
0.685406
0.675938
0.665536
0.654286
0.642278
0.629611
0.616388
0.602719
0.588716
0.574499
0.56019
0.545915
0.531805
0.51799
0.504603
0.491779
0.47965
0.468348
0.458002
0.448734
0.44066
0.433884
0.428502
0.424592
0.422193
0.421346
0.422479
0.425915
0.0177038
0.0171492
0.0148951
0.0111022
0.00602989
-0.000163387
-0.00732714
-0.0153048
-0.023942
-0.0330899
-0.0426069
-0.0523596
-0.0622239
-0.0720852
-0.0818393
-0.0913921
-0.100659
-0.109566
-0.118045
-0.126039
-0.133496
-0.140373
-0.146629
-0.152231
-0.157151
-0.161364
-0.164849
-0.167587
-0.169563
-0.170765
-0.171181
-0.170802
-0.169619
-0.167626
-0.164819
-0.161192
-0.156742
-0.151468
-0.145368
-0.138442
-0.13069
-0.122114
-0.112718
-0.102506
-0.0914844
-0.0796611
-0.0670452
-0.0536481
-0.0394832
-0.024566
-0.00891429
0.0074514
0.0245081
0.04223
0.0605886
0.0795524
0.099087
0.119155
0.139715
0.160724
0.182135
0.203897
0.225959
0.248263
0.270751
0.293362
0.316031
0.338693
0.361279
0.38372
0.405944
0.427877
0.449448
0.470582
0.491206
0.511246
0.530629
0.549285
0.567145
0.584141
0.600209
0.615287
0.62932
0.642253
0.654037
0.66463
0.673994
0.682095
0.688909
0.694416
0.698603
0.701465
0.703004
0.703228
0.702156
0.69981
0.696224
0.691437
0.685495
0.678455
0.670376
0.66133
0.65139
0.640639
0.629165
0.617064
0.604432
0.591377
0.578005
0.564431
0.550771
0.537145
0.523675
0.510484
0.497698
0.485441
0.473837
0.463009
0.453075
0.44415
0.43634
0.429747
0.424464
0.420576
0.418136
0.417207
0.418245
0.421595
0.0278855
0.0260788
0.0229851
0.0186551
0.0132227
0.00683088
-0.000383909
-0.00828677
-0.0167442
-0.0256268
-0.0348107
-0.0441787
-0.0536212
-0.0630362
-0.0723305
-0.0814192
-0.0902261
-0.0986829
-0.106729
-0.11431
-0.121379
-0.127895
-0.13382
-0.139123
-0.143777
-0.147759
-0.151047
-0.153624
-0.155476
-0.15659
-0.156953
-0.156557
-0.155394
-0.153456
-0.150738
-0.147235
-0.142944
-0.137862
-0.131988
-0.125319
-0.117857
-0.109603
-0.10056
-0.0907307
-0.0801218
-0.0687397
-0.0565933
-0.0436929
-0.030051
-0.0156822
-0.000603447
0.015166
0.0316041
0.0486865
0.0663859
0.0846721
0.103512
0.12287
0.142707
0.16298
0.183645
0.204652
0.225952
0.247491
0.26921
0.291052
0.312954
0.334853
0.356682
0.378373
0.399858
0.421066
0.441926
0.462366
0.482316
0.501703
0.520458
0.538512
0.555797
0.572248
0.587804
0.602404
0.615993
0.628519
0.639936
0.650201
0.659278
0.667135
0.673747
0.679096
0.68317
0.685963
0.687478
0.687724
0.686718
0.684483
0.681051
0.67646
0.670757
0.663995
0.656234
0.647541
0.637989
0.627657
0.616632
0.605002
0.592866
0.580321
0.567474
0.554432
0.541306
0.52821
0.515259
0.502571
0.490263
0.478451
0.467252
0.45678
0.447144
0.438453
0.430808
0.424304
0.419034
0.415086
0.412519
0.411409
0.412194
0.415194
0.039626
0.0363926
0.0323092
0.0273062
0.0213771
0.0146493
0.00724699
-0.000715626
-0.00912504
-0.0178697
-0.0268424
-0.0359409
-0.0450692
-0.0541378
-0.0630643
-0.0717732
-0.0801966
-0.0882732
-0.0959481
-0.103173
-0.109904
-0.116103
-0.121737
-0.126776
-0.131195
-0.134972
-0.138088
-0.140526
-0.142271
-0.143312
-0.143637
-0.143236
-0.142102
-0.140227
-0.137606
-0.134233
-0.130105
-0.125219
-0.119571
-0.113161
-0.105988
-0.0980531
-0.089358
-0.079906
-0.0697019
-0.0587518
-0.0470633
-0.034646
-0.0215114
-0.00767305
0.00685325
0.0220493
0.0378944
0.0543654
0.0714363
0.0890786
0.107261
0.125948
0.145103
0.164685
0.184651
0.204954
0.225546
0.246374
0.267382
0.288515
0.309711
0.330909
0.352046
0.373054
0.393867
0.414417
0.434634
0.454448
0.473791
0.492593
0.510785
0.5283
0.545073
0.56104
0.576139
0.590315
0.603511
0.615677
0.626769
0.636743
0.645565
0.653205
0.659637
0.664844
0.668815
0.671543
0.673031
0.673289
0.672333
0.670185
0.666877
0.662447
0.65694
0.650407
0.642907
0.634505
0.625271
0.615285
0.604626
0.593384
0.581651
0.569523
0.557101
0.544487
0.531789
0.519114
0.506571
0.494273
0.482328
0.470848
0.459942
0.449716
0.440273
0.431715
0.424136
0.41763
0.412285
0.408187
0.405402
0.404007
0.404392
0.406827
0.0526113
0.0478338
0.0426478
0.0368616
0.0303224
0.023143
0.0154364
0.00729788
-0.00117779
-0.00989586
-0.0187644
-0.0276955
-0.0366061
-0.0454185
-0.0540611
-0.0624679
-0.070579
-0.0783404
-0.0857035
-0.0926249
-0.0990659
-0.104992
-0.110373
-0.115183
-0.119398
-0.122999
-0.125967
-0.128287
-0.129945
-0.130931
-0.131232
-0.130839
-0.129746
-0.127944
-0.125427
-0.122192
-0.118232
-0.113544
-0.108126
-0.101975
-0.0950911
-0.0874733
-0.0791232
-0.0700432
-0.0602372
-0.0497103
-0.0384692
-0.0265225
-0.0138804
-0.000555614
0.0134374
0.0280817
0.0433579
0.0592441
0.0757158
0.0927459
0.110304
0.128358
0.146871
0.165805
0.185118
0.204764
0.224697
0.244867
0.265219
0.285699
0.306248
0.326806
0.347311
0.367699
0.387904
0.40786
0.427498
0.446752
0.465552
0.483832
0.501524
0.518561
0.534881
0.55042
0.565119
0.578921
0.591773
0.603624
0.614431
0.624152
0.632752
0.640201
0.646475
0.651556
0.655434
0.658102
0.659562
0.659825
0.658905
0.656825
0.653615
0.649313
0.643962
0.637613
0.630323
0.622154
0.613177
0.603467
0.593102
0.582168
0.570755
0.558955
0.546865
0.534585
0.522215
0.509859
0.497622
0.485609
0.473924
0.462671
0.451953
0.441871
0.432522
0.424
0.416397
0.409798
0.404291
0.399957
0.396861
0.395081
0.39494
0.396644
0.0665536
0.0601577
0.0537871
0.0471312
0.0398899
0.0321628
0.0240535
0.0156396
0.0069988
-0.00178957
-0.010648
-0.0195021
-0.0282813
-0.0369193
-0.0453546
-0.0535307
-0.0613957
-0.0689029
-0.0760102
-0.0826794
-0.0888768
-0.0945723
-0.0997391
-0.104354
-0.108396
-0.111848
-0.114693
-0.116918
-0.11851
-0.119457
-0.11975
-0.11938
-0.118339
-0.116621
-0.114219
-0.111127
-0.107342
-0.102858
-0.0976731
-0.0917837
-0.0851885
-0.0778868
-0.069879
-0.0611668
-0.0517527
-0.0416412
-0.0308377
-0.0193497
-0.00718644
0.00564087
0.0191189
0.033232
0.0479622
0.0632891
0.0791896
0.095638
0.112606
0.130062
0.147971
0.166297
0.185
0.204035
0.223358
0.242919
0.262667
0.282549
0.302507
0.322482
0.342415
0.362243
0.381901
0.401324
0.420446
0.4392
0.45752
0.475339
0.492591
0.50921
0.525134
0.540301
0.554652
0.568132
0.580686
0.592267
0.602829
0.612332
0.620741
0.628027
0.634166
0.639139
0.642936
0.64555
0.646984
0.647246
0.646352
0.644323
0.641189
0.636985
0.631756
0.62555
0.618423
0.610436
0.601658
0.59216
0.58202
0.571322
0.560151
0.548597
0.536754
0.524718
0.512585
0.500454
0.488427
0.476601
0.465078
0.453955
0.44333
0.433297
0.423948
0.415372
0.407655
0.40088
0.395126
0.390472
0.386981
0.384726
0.383954
0.384802
0.0811921
0.0731341
0.0655227
0.057931
0.0499141
0.0415609
0.032967
0.0241936
0.0153032
0.0063607
-0.00256988
-0.0114269
-0.0201515
-0.0286884
-0.036986
-0.0449966
-0.0526767
-0.0599866
-0.0668905
-0.0733561
-0.0793544
-0.0848598
-0.0898496
-0.0943035
-0.098204
-0.101535
-0.104283
-0.106436
-0.107981
-0.108909
-0.109211
-0.108878
-0.107903
-0.10628
-0.104002
-0.101064
-0.0974599
-0.0931858
-0.0882376
-0.0826123
-0.0763074
-0.0693216
-0.0616543
-0.0533062
-0.044279
-0.0345757
-0.0242008
-0.0131607
-0.00146327
0.0108816
0.0238618
0.0374632
0.0516693
0.0664611
0.081817
0.0977129
0.114122
0.131014
0.148356
0.166113
0.184247
0.202715
0.221473
0.240474
0.259668
0.279003
0.298424
0.317872
0.33729
0.356615
0.375784
0.394734
0.4134
0.431715
0.449614
0.467031
0.483901
0.500159
0.515743
0.530592
0.544647
0.557853
0.570157
0.58151
0.591867
0.60119
0.609441
0.616592
0.622618
0.627502
0.631232
0.633801
0.635211
0.635471
0.634594
0.632602
0.629524
0.625395
0.620257
0.614157
0.607151
0.599299
0.590666
0.581323
0.571346
0.560816
0.549815
0.538432
0.526757
0.514881
0.5029
0.490908
0.479
0.467272
0.45582
0.444736
0.434112
0.42404
0.414604
0.405889
0.397977
0.390944
0.384866
0.379813
0.37585
0.373043
0.371556
0.371454
0.0962913
0.0865493
0.0776605
0.0690844
0.0602348
0.0511921
0.0420462
0.0328436
0.023632
0.0144635
0.00538947
-0.00354042
-0.0122785
-0.0207799
-0.0290024
-0.0369071
-0.0444584
-0.0516236
-0.0583733
-0.0646809
-0.0705226
-0.0758772
-0.0807261
-0.0850525
-0.0888416
-0.0920803
-0.0947567
-0.0968598
-0.0983799
-0.0993081
-0.0996361
-0.0993564
-0.098462
-0.0969466
-0.0948038
-0.0920278
-0.0886133
-0.0845552
-0.0798493
-0.0744917
-0.0684793
-0.06181
-0.0544822
-0.0464956
-0.0378507
-0.0285495
-0.0185953
-0.00799312
0.00325046
0.0151269
0.0276255
0.0407336
0.0544362
0.0687158
0.0835524
0.0989233
0.114803
0.131164
0.147974
0.165199
0.182803
0.200745
0.218983
0.23747
0.256159
0.274997
0.293931
0.312906
0.331862
0.35074
0.369478
0.388012
0.406278
0.424212
0.441748
0.458821
0.475365
0.491318
0.506617
0.5212
0.53501
0.547991
0.560091
0.571259
0.581453
0.59063
0.598756
0.605801
0.61174
0.616555
0.620233
0.622767
0.62416
0.624417
0.623553
0.621588
0.618551
0.614475
0.609401
0.603376
0.596454
0.588692
0.580157
0.570917
0.561045
0.550621
0.539726
0.528443
0.516862
0.505072
0.493163
0.481227
0.469356
0.457642
0.446175
0.435045
0.42434
0.414144
0.404541
0.395608
0.387423
0.380058
0.373582
0.368061
0.363556
0.360132
0.357864
0.356744
0.111639
0.100205
0.0900173
0.0804226
0.0706969
0.0609151
0.0511629
0.0414732
0.0318807
0.0224251
0.0131462
0.00408238
-0.0047291
-0.0132531
-0.0214568
-0.0293095
-0.0367832
-0.0438522
-0.0504935
-0.056686
-0.0624113
-0.0676528
-0.0723957
-0.076627
-0.0803349
-0.0835089
-0.0861391
-0.0882166
-0.0897332
-0.0906812
-0.0910535
-0.0908432
-0.090044
-0.0886495
-0.0866537
-0.0840505
-0.0808343
-0.0769998
-0.0725421
-0.0674568
-0.06174
-0.0553887
-0.0484003
-0.0407734
-0.0325075
-0.0236032
-0.0140626
-0.00388939
0.00691121
0.0183321
0.0303641
0.042996
0.0562144
0.0700034
0.0843446
0.0992168
0.114596
0.130456
0.146767
0.163496
0.180608
0.198065
0.215824
0.233841
0.252069
0.270459
0.288957
0.307508
0.326056
0.34454
0.362901
0.381074
0.398997
0.416605
0.433834
0.450618
0.466893
0.482595
0.497661
0.512032
0.525647
0.538451
0.550392
0.56142
0.571489
0.580559
0.588594
0.595563
0.601441
0.606209
0.609852
0.612365
0.613748
0.614006
0.613153
0.611209
0.6082
0.604159
0.599127
0.593149
0.586278
0.57857
0.57009
0.560905
0.551086
0.540712
0.52986
0.518615
0.507061
0.495284
0.483374
0.471419
0.459508
0.447729
0.43617
0.424915
0.41405
0.403654
0.393806
0.384581
0.376052
0.368285
0.361345
0.355292
0.350187
0.34609
0.34299
0.340805
0.127041
0.11392
0.102421
0.0917848
0.0811518
0.0705929
0.0601913
0.0499676
0.0399444
0.0301501
0.0206137
0.0113633
0.00242609
-0.00617212
-0.0144071
-0.0222562
-0.0296989
-0.0367163
-0.0432915
-0.0494092
-0.0550561
-0.0602202
-0.0648909
-0.0690586
-0.0727147
-0.0758513
-0.0784608
-0.0805363
-0.0820713
-0.0830594
-0.0834946
-0.0833709
-0.0826824
-0.0814229
-0.0795866
-0.0771674
-0.0741593
-0.0705567
-0.0663542
-0.0615467
-0.0561295
-0.0500986
-0.0434505
-0.0361826
-0.0282932
-0.0197816
-0.0106487
-0.000896667
0.0094707
0.0204477
0.0320269
0.0441986
0.0569508
0.0702694
0.0841376
0.0985358
0.113442
0.12883
0.144673
0.16094
0.177596
0.194604
0.211925
0.229514
0.247327
0.265313
0.283422
0.3016
0.319789
0.337932
0.355967
0.373834
0.391468
0.408805
0.425782
0.442332
0.458391
0.473895
0.488782
0.50299
0.516461
0.529137
0.540965
0.551895
0.561882
0.570883
0.578862
0.585786
0.591631
0.596375
0.600004
0.602511
0.603895
0.60416
0.60332
0.601393
0.598404
0.594386
0.589377
0.583423
0.576574
0.568887
0.560424
0.551251
0.541439
0.531062
0.5202
0.508932
0.497342
0.485515
0.473536
0.461492
0.44947
0.437553
0.425827
0.414375
0.403275
0.392607
0.382445
0.372859
0.363919
0.355687
0.348224
0.341582
0.335825
0.331009
0.327037
0.323752
0.142321
0.127523
0.114711
0.103019
0.0914571
0.0800929
0.0690082
0.0582129
0.0477182
0.0375423
0.027704
0.0182216
0.00911309
0.000395492
-0.00791522
-0.0158043
-0.0232581
-0.0302645
-0.0368128
-0.0428932
-0.0484975
-0.0536183
-0.058249
-0.0623836
-0.0660166
-0.0691426
-0.0717567
-0.0738539
-0.0754293
-0.0764781
-0.0769954
-0.0769759
-0.0764142
-0.0753046
-0.0736412
-0.0714179
-0.0686286
-0.0652673
-0.0613278
-0.0568045
-0.0516919
-0.0459849
-0.039679
-0.0327704
-0.0252561
-0.0171342
-0.00840411
0.000933438
0.0108761
0.0214199
0.0325587
0.0442846
0.0565874
0.0694544
0.0828704
0.0968176
0.111275
0.12622
0.141625
0.157461
0.173695
0.190292
0.207212
0.224414
0.241853
0.259481
0.277246
0.295097
0.312977
0.330828
0.34859
0.366201
0.383599
0.400719
0.417496
0.433865
0.449762
0.465122
0.479881
0.493979
0.507354
0.51995
0.531712
0.54259
0.552535
0.561507
0.569465
0.576379
0.58222
0.586967
0.590604
0.593123
0.594522
0.594804
0.593981
0.592071
0.589098
0.585093
0.580094
0.574145
0.567295
0.5596
0.55112
0.541921
0.532073
0.521649
0.510725
0.499381
0.487699
0.475761
0.463651
0.451453
0.439252
0.42713
0.41517
0.40345
0.392049
0.381042
0.370499
0.360489
0.351076
0.342322
0.334279
0.327
0.320544
0.314972
0.310096
0.305691
0.157315
0.140858
0.126736
0.113982
0.101477
0.0892868
0.0774938
0.0660972
0.055098
0.0445049
0.0343273
0.0245744
0.0152554
0.00637896
-0.00204677
-0.0100144
-0.0175174
-0.02455
-0.0311073
-0.0371854
-0.0427808
-0.0478905
-0.052512
-0.0566428
-0.0602804
-0.0634224
-0.066066
-0.0682084
-0.0698465
-0.0709769
-0.0715957
-0.0716985
-0.0712805
-0.0703362
-0.0688599
-0.0668455
-0.0642865
-0.0611765
-0.0575089
-0.0532773
-0.0484752
-0.0430966
-0.0371358
-0.0305879
-0.0234485
-0.0157144
-0.00738345
0.00154502
0.0110703
0.0211899
0.0318995
0.0431929
0.0550613
0.067494
0.0804773
0.0939951
0.108028
0.122555
0.13755
0.152986
0.16883
0.18505
0.201606
0.218459
0.235565
0.252876
0.270342
0.287912
0.305529
0.323136
0.340674
0.358081
0.375294
0.392248
0.408879
0.425121
0.440908
0.456175
0.470859
0.484897
0.498227
0.510792
0.522535
0.533405
0.543353
0.552335
0.560312
0.567249
0.573119
0.577897
0.581567
0.58412
0.58555
0.585862
0.585065
0.583176
0.580218
0.576221
0.571221
0.565262
0.558392
0.550665
0.54214
0.532883
0.522961
0.512447
0.501417
0.489948
0.478121
0.466017
0.453718
0.441307
0.428866
0.416476
0.404217
0.392167
0.380401
0.368991
0.358007
0.347513
0.337572
0.328241
0.31957
0.311608
0.304416
0.298053
0.292251
0.286711
0.171871
0.153776
0.138353
0.124535
0.11108
0.0980509
0.0855309
0.0735102
0.0619805
0.0509413
0.0403935
0.0303375
0.0207745
0.011705
0.00312984
-0.00495083
-0.0125371
-0.0196297
-0.0262293
-0.0323374
-0.0379553
-0.0430845
-0.0477261
-0.0518812
-0.0555505
-0.0587341
-0.0614318
-0.0636429
-0.0653661
-0.0665991
-0.0673393
-0.0675831
-0.0673261
-0.0665632
-0.0652889
-0.0634969
-0.0611806
-0.0583331
-0.0549473
-0.0510157
-0.0465312
-0.0414865
-0.035875
-0.0296902
-0.0229266
-0.0155796
-0.00764553
0.000877956
0.00999172
0.019695
0.0299851
0.0408575
0.0523054
0.0643194
0.0768878
0.089996
0.103627
0.11776
0.132371
0.147435
0.16292
0.178795
0.195023
0.211563
0.228374
0.245409
0.262618
0.27995
0.297351
0.314762
0.332124
0.349376
0.366454
0.383294
0.39983
0.415996
0.431726
0.446953
0.461613
0.475642
0.488978
0.501561
0.513333
0.524242
0.534237
0.543272
0.551307
0.558305
0.564237
0.569078
0.572809
0.575419
0.576902
0.57726
0.576501
0.574641
0.571701
0.567711
0.562705
0.556725
0.549819
0.542041
0.533447
0.524103
0.514076
0.503436
0.492258
0.48062
0.468601
0.45628
0.443739
0.431059
0.418321
0.405605
0.392989
0.380549
0.368358
0.356487
0.345004
0.333972
0.323449
0.313492
0.304149
0.295463
0.2875
0.280321
0.273573
0.266889
0.185848
0.166138
0.149427
0.13455
0.120141
0.106265
0.0930056
0.0803441
0.0682635
0.0567552
0.0458118
0.0354258
0.0255902
0.0162984
0.00754364
-0.000680586
-0.00838094
-0.015564
-0.0222364
-0.0284045
-0.0340743
-0.0392515
-0.0439411
-0.0481476
-0.0518746
-0.0551252
-0.0579014
-0.0602045
-0.0620349
-0.0633918
-0.0642736
-0.0646773
-0.0645992
-0.0640345
-0.0629778
-0.0614228
-0.0593625
-0.0567896
-0.0536961
-0.0500741
-0.0459152
-0.0412112
-0.0359541
-0.0301363
-0.0237508
-0.0167915
-0.00925321
-0.00113197
0.00757478
0.016868
0.0267468
0.0372084
0.0482476
0.0598571
0.0720266
0.0847435
0.097992
0.111753
0.126006
0.140724
0.155879
0.17144
0.187372
0.203635
0.220188
0.236985
0.253978
0.271116
0.288343
0.305604
0.322837
0.339982
0.356975
0.373751
0.390243
0.406385
0.422109
0.437349
0.452038
0.46611
0.479502
0.492153
0.504004
0.514999
0.525087
0.534219
0.542354
0.549453
0.555485
0.560422
0.564245
0.56694
0.568499
0.568923
0.568218
0.566398
0.563484
0.559503
0.55449
0.548484
0.541532
0.533687
0.525006
0.515551
0.505389
0.494591
0.48323
0.471383
0.459128
0.446545
0.433713
0.420714
0.407626
0.39453
0.381501
0.368615
0.355944
0.343559
0.331523
0.3199
0.308748
0.29812
0.288063
0.278616
0.269852
0.261832
0.254123
0.24629
0.199114
0.177815
0.159831
0.143901
0.12854
0.113814
0.0998069
0.0864929
0.0738464
0.0618511
0.0504918
0.0397534
0.0296215
0.020082
0.0111215
0.00272678
-0.00511509
-0.0124165
-0.0191895
-0.0254452
-0.0311944
-0.0364466
-0.0412107
-0.0454944
-0.0493045
-0.0526466
-0.0555252
-0.0579435
-0.0599034
-0.0614055
-0.0624492
-0.0630323
-0.0631515
-0.0628025
-0.0619797
-0.0606769
-0.0588868
-0.0566014
-0.0538123
-0.0505103
-0.0466862
-0.0423307
-0.0374346
-0.0319888
-0.0259849
-0.0194153
-0.0122733
-0.00455301
0.0037497
0.0126376
0.0221117
0.0321709
0.0428119
0.054029
0.0658141
0.0781559
0.0910406
0.104451
0.118367
0.132764
0.147616
0.162893
0.178559
0.194578
0.210908
0.227505
0.244321
0.261305
0.278402
0.295556
0.312707
0.329792
0.346749
0.36351
0.380009
0.396178
0.411949
0.427253
0.442023
0.45619
0.469691
0.482462
0.494441
0.505572
0.515801
0.525078
0.533357
0.540599
0.54677
0.551841
0.555789
0.558599
0.560262
0.560776
0.560145
0.558382
0.555505
0.551541
0.546522
0.540489
0.533485
0.525562
0.516778
0.507193
0.496874
0.48589
0.474315
0.462224
0.449695
0.436807
0.42364
0.410274
0.396788
0.383261
0.369768
0.356385
0.343183
0.33023
0.317593
0.305332
0.293504
0.282163
0.271353
0.261113
0.251518
0.242637
0.233954
0.224966
0.211542
0.18868
0.169441
0.152468
0.13616
0.120585
0.105827
0.0918529
0.0786299
0.0661342
0.0543431
0.0432343
0.0327861
0.0229777
0.0137887
0.00519966
-0.00280828
-0.0102531
-0.017152
-0.0235209
-0.0293749
-0.0347275
-0.0395912
-0.0439771
-0.0478949
-0.0513526
-0.0543571
-0.0569135
-0.0590252
-0.060694
-0.0619202
-0.0627024
-0.063038
-0.0629226
-0.0623509
-0.0613165
-0.0598116
-0.0578277
-0.0553556
-0.0523853
-0.0489065
-0.0449087
-0.0403812
-0.0353139
-0.0296966
-0.0235203
-0.0167763
-0.00945736
-0.00155734
0.00692835
0.0160025
0.0256659
0.0359173
0.0467526
0.0581656
0.0701469
0.0826843
0.0957623
0.109362
0.123462
0.138036
0.153054
0.168485
0.184291
0.200432
0.216865
0.233541
0.25041
0.267419
0.284509
0.301622
0.318694
0.335661
0.352458
0.369014
0.385262
0.401131
0.416552
0.431455
0.445771
0.459434
0.472377
0.484537
0.495855
0.506275
0.515744
0.524215
0.531645
0.537998
0.543243
0.547354
0.550314
0.552111
0.552742
0.552209
0.550523
0.5477
0.543764
0.538749
0.53269
0.525632
0.517627
0.508729
0.498999
0.488504
0.477311
0.465494
0.453127
0.44029
0.42706
0.413517
0.399742
0.385812
0.371807
0.357803
0.343875
0.330092
0.316526
0.30324
0.290295
0.277749
0.265655
0.254055
0.24299
0.23254
0.222776
0.213107
0.202962
0.223012
0.198616
0.17814
0.160137
0.142891
0.12647
0.110961
0.0963231
0.0825169
0.0695111
0.057276
0.0457824
0.0350016
0.0249059
0.0154689
0.00666472
-0.00153109
-0.00914193
-0.0161899
-0.0226955
-0.0286781
-0.034155
-0.0391424
-0.0436544
-0.0477036
-0.0513005
-0.0544541
-0.0571713
-0.0594568
-0.0613139
-0.0627435
-0.0637452
-0.0643164
-0.0644534
-0.0641508
-0.0634016
-0.0621979
-0.0605305
-0.0583894
-0.0557635
-0.0526416
-0.0490119
-0.0448623
-0.0401813
-0.0349571
-0.029179
-0.0228367
-0.0159211
-0.00842408
-0.000339309
0.00833797
0.0176105
0.0274788
0.0379409
0.0489923
0.0606256
0.0728302
0.0855924
0.0988953
0.112718
0.127036
0.141823
0.157045
0.172668
0.188651
0.204953
0.221525
0.238318
0.255278
0.272347
0.289465
0.30657
0.323596
0.340475
0.357139
0.373516
0.389536
0.405127
0.420218
0.434737
0.448615
0.461784
0.474179
0.485738
0.496401
0.506114
0.514826
0.522493
0.529074
0.534535
0.538851
0.541999
0.543966
0.544746
0.544339
0.542753
0.540004
0.536114
0.531113
0.525037
0.517929
0.509839
0.500822
0.490937
0.48025
0.468829
0.456747
0.44408
0.430903
0.417298
0.403343
0.389118
0.374704
0.360178
0.345618
0.331098
0.316691
0.302465
0.288486
0.274815
0.26151
0.248624
0.236202
0.224282
0.212951
0.202286
0.191619
0.180311
0.233409
0.207508
0.185817
0.166797
0.148623
0.131363
0.115106
0.0998044
0.0854114
0.0718892
0.0592014
0.0473116
0.0361848
0.0257868
0.0160848
0.00704734
-0.00135571
-0.00915284
-0.0163709
-0.023035
-0.0291684
-0.0347923
-0.0399262
-0.0445874
-0.0487911
-0.0525503
-0.0558758
-0.0587762
-0.0612578
-0.0633247
-0.064979
-0.0662207
-0.0670477
-0.0674565
-0.0674414
-0.0669953
-0.0661098
-0.0647749
-0.0629797
-0.0607124
-0.0579603
-0.0547104
-0.0509494
-0.046664
-0.0418411
-0.0364679
-0.0305325
-0.0240239
-0.0169322
-0.00924888
-0.000967365
0.00791709
0.017407
0.0275024
0.0382006
0.0494961
0.0613804
0.0738414
0.0868637
0.100428
0.114512
0.129089
0.144128
0.159595
0.175451
0.191654
0.208157
0.22491
0.24186
0.258948
0.276115
0.293297
0.310427
0.327438
0.344259
0.360817
0.377041
0.392856
0.408188
0.422965
0.437114
0.450566
0.463251
0.475106
0.486067
0.496078
0.505084
0.513038
0.519897
0.525623
0.530188
0.533566
0.535743
0.536708
0.53646
0.535004
0.532354
0.52853
0.52356
0.517479
0.510329
0.502158
0.49302
0.482974
0.472085
0.460422
0.448057
0.435065
0.421524
0.407513
0.393112
0.378403
0.363466
0.34838
0.333222
0.318069
0.302993
0.288065
0.273351
0.258913
0.244811
0.231098
0.217819
0.205015
0.192779
0.181194
0.169515
0.157039
0.242625
0.215247
0.192362
0.172343
0.153253
0.135163
0.118163
0.1022
0.0872195
0.0731774
0.0600306
0.0477363
0.0362528
0.0255398
0.0155585
0.00627191
-0.00235549
-0.0103572
-0.0177646
-0.0246073
-0.0309123
-0.0367047
-0.042007
-0.0468396
-0.0512203
-0.0551642
-0.0586841
-0.0617901
-0.0644898
-0.0667885
-0.068689
-0.0701918
-0.0712953
-0.0719958
-0.0722877
-0.0721635
-0.071614
-0.0706288
-0.0691958
-0.0673023
-0.0649343
-0.0620776
-0.0587173
-0.0548385
-0.0504265
-0.0454667
-0.0399453
-0.0338494
-0.027167
-0.0198878
-0.012003
-0.00350584
0.00560816
0.0153411
0.0256924
0.0366584
0.0482324
0.0604044
0.0731605
0.0864835
0.100352
0.114741
0.12962
0.144957
0.160713
0.176847
0.193313
0.210062
0.227038
0.244185
0.261443
0.278745
0.296027
0.313217
0.330245
0.347036
0.363515
0.379608
0.395238
0.410329
0.424807
0.438598
0.451632
0.46384
0.475157
0.485523
0.494879
0.503175
0.510365
0.516408
0.52127
0.524926
0.527356
0.528546
0.528494
0.527202
0.52468
0.520948
0.516031
0.509963
0.502783
0.494539
0.485284
0.475077
0.463981
0.452065
0.439402
0.426067
0.412139
0.397697
0.382822
0.367596
0.352101
0.336417
0.320623
0.304797
0.289013
0.273342
0.257852
0.242608
0.227671
0.213096
0.198929
0.185212
0.172046
0.159521
0.146816
0.133163
0.250551
0.221728
0.197673
0.17667
0.156679
0.137769
0.120035
0.103415
0.0878487
0.0732856
0.0596761
0.0469711
0.0351226
0.0240843
0.0138117
0.00426224
-0.0046047
-0.0128274
-0.0204419
-0.0274818
-0.0339781
-0.0399593
-0.0454511
-0.0504767
-0.0550562
-0.0592069
-0.0629434
-0.0662772
-0.0692173
-0.0717698
-0.0739383
-0.0757238
-0.0771249
-0.078138
-0.0787571
-0.0789744
-0.07878
-0.0781626
-0.0771094
-0.0756063
-0.0736382
-0.0711894
-0.0682436
-0.0647842
-0.0607946
-0.0562584
-0.05116
-0.0454844
-0.0392176
-0.0323471
-0.0248622
-0.0167539
-0.00801558
0.00135695
0.0113651
0.0220074
0.0332791
0.0451718
0.0576738
0.0707693
0.0844386
0.0986577
0.113398
0.128629
0.144311
0.160406
0.176866
0.193643
0.210682
0.227926
0.245315
0.262781
0.280259
0.297676
0.31496
0.332035
0.348824
0.36525
0.381233
0.396697
0.411562
0.425753
0.439196
0.451818
0.463551
0.474331
0.484097
0.492793
0.500371
0.506785
0.512
0.515984
0.518715
0.520177
0.520364
0.519274
0.516916
0.513306
0.508469
0.502435
0.495244
0.48694
0.477576
0.467211
0.455907
0.443733
0.430762
0.41707
0.402736
0.38784
0.372465
0.356694
0.340609
0.324294
0.307828
0.291291
0.27476
0.258307
0.242004