/*--------------------------------*- C++ -*----------------------------------*\
  =========                 |
  \\      /  F ield         | OpenFOAM: The Open Source CFD Toolbox
   \\    /   O peration     | Website:  https://openfoam.org
    \\  /    A nd           | Version:  9
     \\/     M anipulation  |
\*---------------------------------------------------------------------------*/
FoamFile
{
    format      ascii;
    class       surfaceScalarField;
    location    "0.7";
    object      phi;
}
// * * * * * * * * * * * * * * * * * * * * * * * * * * * * * * * * * * * * * //

dimensions      [0 3 -1 0 0 0 0];

internalField   nonuniform List<scalar> 
32512
(
2.73027e-10
-2.78352e-10
1.10134e-09
-8.28265e-10
2.13051e-09
-1.02928e-09
3.08435e-09
-9.53932e-10
3.7914e-09
-7.0702e-10
4.14812e-09
-3.56646e-10
4.09499e-09
5.30914e-11
3.60188e-09
4.92984e-10
2.65809e-09
9.43724e-10
1.26568e-09
1.39246e-09
-5.64811e-10
1.83056e-09
-2.81717e-09
2.25234e-09
-5.47133e-09
2.65407e-09
-8.50477e-09
3.03336e-09
-1.18935e-08
3.38877e-09
-1.56131e-08
3.71956e-09
-1.96386e-08
4.02553e-09
-2.39455e-08
4.30689e-09
-2.85097e-08
4.56411e-09
-3.33076e-08
4.79787e-09
-3.83165e-08
5.00894e-09
-4.35147e-08
5.19818e-09
-4.88812e-08
5.36652e-09
-5.43961e-08
5.51491e-09
-6.00404e-08
5.64428e-09
-6.57959e-08
5.75551e-09
-7.16454e-08
5.84947e-09
-7.75724e-08
5.92695e-09
-8.35611e-08
5.98869e-09
-8.95965e-08
6.03538e-09
-9.56641e-08
6.06762e-09
-1.0175e-07
6.08594e-09
-1.07841e-07
6.09081e-09
-1.13923e-07
6.08262e-09
-1.19985e-07
6.06169e-09
-1.26013e-07
6.02827e-09
-1.31996e-07
5.98257e-09
-1.37921e-07
5.92474e-09
-1.43776e-07
5.85486e-09
-1.49549e-07
5.77299e-09
-1.55228e-07
5.67915e-09
-1.60801e-07
5.5733e-09
-1.66256e-07
5.45542e-09
-1.71582e-07
5.32543e-09
-1.76765e-07
5.18328e-09
-1.81794e-07
5.02889e-09
-1.86656e-07
4.8622e-09
-1.91339e-07
4.68316e-09
-1.95831e-07
4.49173e-09
-2.00119e-07
4.2879e-09
-2.04191e-07
4.0717e-09
-2.08034e-07
3.84318e-09
-2.11636e-07
3.60243e-09
-2.14986e-07
3.34963e-09
-2.18071e-07
3.08496e-09
-2.2088e-07
2.80869e-09
-2.23401e-07
2.52115e-09
-2.25624e-07
2.22274e-09
-2.27538e-07
1.91391e-09
-2.29133e-07
1.59521e-09
-2.304e-07
1.26723e-09
-2.31331e-07
9.30676e-10
-2.31917e-07
5.863e-10
-2.32152e-07
2.34945e-10
-2.32029e-07
-1.22474e-10
-2.31545e-07
-4.84965e-10
-2.30693e-07
-8.5146e-10
-2.29472e-07
-1.22082e-09
-2.2788e-07
-1.59185e-09
-2.25917e-07
-1.96327e-09
-2.23583e-07
-2.33376e-09
-2.20881e-07
-2.70193e-09
-2.17815e-07
-3.06637e-09
-2.14389e-07
-3.4256e-09
-2.10611e-07
-3.77812e-09
-2.06489e-07
-4.12241e-09
-2.02032e-07
-4.45694e-09
-1.97252e-07
-4.78015e-09
-1.92161e-07
-5.09051e-09
-1.86775e-07
-5.38648e-09
-1.81108e-07
-5.66657e-09
-1.75179e-07
-5.92931e-09
-1.69006e-07
-6.17326e-09
-1.62609e-07
-6.39707e-09
-1.56009e-07
-6.59944e-09
-1.4923e-07
-6.77915e-09
-1.42295e-07
-6.93506e-09
-1.35229e-07
-7.06613e-09
-1.28057e-07
-7.17145e-09
-1.20807e-07
-7.25019e-09
-1.13506e-07
-7.30166e-09
-1.0618e-07
-7.32531e-09
-9.88595e-08
-7.32071e-09
-9.15719e-08
-7.28759e-09
-8.43461e-08
-7.22582e-09
-7.72107e-08
-7.13541e-09
-7.01941e-08
-7.01654e-09
-6.33246e-08
-6.86953e-09
-5.66297e-08
-6.69488e-09
-5.01365e-08
-6.49322e-09
-4.38712e-08
-6.26535e-09
-3.78589e-08
-6.01223e-09
-3.2124e-08
-5.73496e-09
-2.66892e-08
-5.4348e-09
-2.1576e-08
-5.11317e-09
-1.68044e-08
-4.77162e-09
-1.23926e-08
-4.41188e-09
-8.35675e-09
-4.03582e-09
-4.71127e-09
-3.64549e-09
-1.46816e-09
-3.24312e-09
1.36296e-09
-2.83112e-09
3.77512e-09
-2.41216e-09
5.76427e-09
-1.98914e-09
7.3296e-09
-1.56532e-09
8.47393e-09
-1.14432e-09
9.20423e-09
-7.30313e-10
9.53229e-09
-3.28087e-10
9.47557e-09
5.66695e-11
9.05844e-09
4.17084e-10
8.31377e-09
7.44638e-10
7.28526e-09
1.02851e-09
6.03067e-09
1.25462e-09
4.62642e-09
1.40428e-09
3.17371e-09
1.45272e-09
1.80538e-09
1.36832e-09
6.93585e-10
1.11178e-09
4.93823e-11
6.44207e-10
4.93827e-11
8.26474e-10
-1.10478e-09
2.4608e-09
-2.46249e-09
4.29305e-09
-2.86162e-09
5.84269e-09
-2.50386e-09
6.75387e-09
-1.6184e-09
6.78158e-09
-3.84317e-10
5.76781e-09
1.06697e-09
3.61969e-09
2.64107e-09
2.92201e-10
4.27104e-09
-4.225e-09
5.9095e-09
-9.91742e-09
7.52293e-09
-1.67528e-08
9.08777e-09
-2.46865e-08
1.05877e-08
-3.36651e-08
1.20119e-08
-4.36296e-08
1.33532e-08
-5.45174e-08
1.46073e-08
-6.62641e-08
1.57722e-08
-7.88048e-08
1.68475e-08
-9.20746e-08
1.7834e-08
-1.0601e-07
1.87333e-08
-1.20549e-07
1.95477e-08
-1.35631e-07
2.02799e-08
-1.51197e-07
2.09329e-08
-1.67192e-07
2.15097e-08
-1.83561e-07
2.20135e-08
-2.00253e-07
2.24474e-08
-2.17218e-07
2.28144e-08
-2.34408e-07
2.31173e-08
-2.51778e-07
2.33588e-08
-2.69284e-07
2.35412e-08
-2.86883e-07
2.36669e-08
-3.04535e-07
2.37376e-08
-3.222e-07
2.37553e-08
-3.39838e-07
2.37212e-08
-3.57413e-07
2.36367e-08
-3.74888e-07
2.35027e-08
-3.92225e-07
2.332e-08
-4.0939e-07
2.30893e-08
-4.26346e-07
2.28108e-08
-4.43057e-07
2.2485e-08
-4.5949e-07
2.21118e-08
-4.75608e-07
2.16913e-08
-4.91376e-07
2.12235e-08
-5.06759e-07
2.07083e-08
-5.21721e-07
2.01454e-08
-5.36227e-07
1.95347e-08
-5.50241e-07
1.88761e-08
-5.63728e-07
1.81696e-08
-5.76651e-07
1.74149e-08
-5.88975e-07
1.66124e-08
-6.00666e-07
1.57621e-08
-6.11687e-07
1.48644e-08
-6.22004e-07
1.39198e-08
-6.31584e-07
1.29291e-08
-6.40392e-07
1.1893e-08
-6.48396e-07
1.08128e-08
-6.55565e-07
9.68977e-09
-6.61867e-07
8.52554e-09
-6.67276e-07
7.32199e-09
-6.71762e-07
6.08125e-09
-6.753e-07
4.80574e-09
-6.77868e-07
3.49816e-09
-6.79443e-07
2.16151e-09
-6.80007e-07
7.99066e-10
-6.79544e-07
-5.85617e-10
-6.7804e-07
-1.9887e-09
-6.75486e-07
-3.40606e-09
-6.71873e-07
-4.83332e-09
-6.67199e-07
-6.26588e-09
-6.61463e-07
-7.69886e-09
-6.5467e-07
-9.1272e-09
-6.46826e-07
-1.05456e-08
-6.37944e-07
-1.19487e-08
-6.28039e-07
-1.33309e-08
-6.1713e-07
-1.46865e-08
-6.05243e-07
-1.60097e-08
-5.92405e-07
-1.72947e-08
-5.7865e-07
-1.85357e-08
-5.64013e-07
-1.97268e-08
-5.48538e-07
-2.08623e-08
-5.32268e-07
-2.19365e-08
-5.15253e-07
-2.29439e-08
-4.97547e-07
-2.38792e-08
-4.79207e-07
-2.47371e-08
-4.60294e-07
-2.55129e-08
-4.40871e-07
-2.6202e-08
-4.21006e-07
-2.68001e-08
-4.00768e-07
-2.73034e-08
-3.80232e-07
-2.77083e-08
-3.5947e-07
-2.80119e-08
-3.3856e-07
-2.82115e-08
-3.1758e-07
-2.83052e-08
-2.9661e-07
-2.82913e-08
-2.75728e-07
-2.81689e-08
-2.55017e-07
-2.79375e-08
-2.34555e-07
-2.75972e-08
-2.14423e-07
-2.71488e-08
-1.94699e-07
-2.65934e-08
-1.75461e-07
-2.59331e-08
-1.56784e-07
-2.51703e-08
-1.38741e-07
-2.4308e-08
-1.21403e-07
-2.335e-08
-1.04837e-07
-2.23006e-08
-8.91075e-08
-2.11647e-08
-7.42731e-08
-1.99476e-08
-6.03891e-08
-1.86556e-08
-4.75058e-08
-1.72952e-08
-3.56677e-08
-1.58739e-08
-2.49136e-08
-1.43996e-08
-1.52756e-08
-1.28811e-08
-6.77877e-09
-1.13279e-08
5.59476e-10
-9.75042e-09
6.73044e-09
-8.16014e-09
1.17349e-08
-6.5698e-09
1.55842e-08
-4.99367e-09
1.83017e-08
-3.44793e-09
1.99248e-08
-1.95118e-09
2.05066e-08
-5.25145e-10
2.01192e-08
8.04429e-10
1.88573e-08
2.00649e-09
1.68427e-08
3.04306e-09
1.42302e-08
3.86713e-09
1.12141e-08
4.42035e-09
8.0353e-09
4.6315e-09
4.9853e-09
4.41826e-09
2.40232e-09
3.69469e-09
6.42488e-10
2.40396e-09
6.91866e-10
1.03296e-09
-2.13784e-09
2.87066e-09
-4.30026e-09
4.7191e-09
-4.71002e-09
5.98995e-09
-3.77474e-09
6.23513e-09
-1.86373e-09
5.12979e-09
7.20878e-10
2.45218e-09
3.74457e-09
-1.93716e-09
7.0305e-09
-8.1134e-09
1.04473e-08
-1.61023e-08
1.38983e-08
-2.58923e-08
1.73127e-08
-3.74438e-08
2.06392e-08
-5.06969e-08
2.38409e-08
-6.55771e-08
2.68921e-08
-8.19994e-08
2.97755e-08
-9.98721e-08
3.248e-08
-1.19099e-07
3.49994e-08
-1.39583e-07
3.73312e-08
-1.61225e-07
3.94755e-08
-1.83926e-07
4.14347e-08
-2.07591e-07
4.32127e-08
-2.32125e-07
4.48141e-08
-2.57437e-07
4.62446e-08
-2.83437e-07
4.75102e-08
-3.10041e-07
4.8617e-08
-3.37165e-07
4.95711e-08
-3.64729e-07
5.03786e-08
-3.92657e-07
5.10453e-08
-4.20874e-07
5.15765e-08
-4.49311e-07
5.19773e-08
-4.77896e-07
5.22522e-08
-5.06564e-07
5.24053e-08
-5.35249e-07
5.24403e-08
-5.63887e-07
5.23602e-08
-5.92418e-07
5.21676e-08
-6.20781e-07
5.18648e-08
-6.48914e-07
5.14534e-08
-6.76759e-07
5.09348e-08
-7.04258e-07
5.03099e-08
-7.31353e-07
4.95794e-08
-7.57985e-07
4.87437e-08
-7.84097e-07
4.7803e-08
-8.0963e-07
4.67572e-08
-8.34528e-07
4.56063e-08
-8.58733e-07
4.435e-08
-8.82186e-07
4.29882e-08
-9.04831e-07
4.15209e-08
-9.2661e-07
3.99479e-08
-9.47464e-07
3.82694e-08
-9.67337e-07
3.64859e-08
-9.86173e-07
3.45978e-08
-1.00392e-06
3.26063e-08
-1.02051e-06
3.05125e-08
-1.0359e-06
2.83183e-08
-1.05003e-06
2.60257e-08
-1.06285e-06
2.36373e-08
-1.07432e-06
2.11563e-08
-1.08438e-06
1.85864e-08
-1.09299e-06
1.59318e-08
-1.10011e-06
1.31973e-08
-1.10569e-06
1.03882e-08
-1.1097e-06
7.51072e-09
-1.11211e-06
4.57132e-09
-1.11289e-06
1.57728e-09
-1.11201e-06
-1.46357e-09
-1.10946e-06
-4.54281e-09
-1.10521e-06
-7.65144e-09
-1.09927e-06
-1.07799e-08
-1.09161e-06
-1.39181e-08
-1.08226e-06
-1.70555e-08
-1.0712e-06
-2.01811e-08
-1.05847e-06
-2.32835e-08
-1.04406e-06
-2.63508e-08
-1.02802e-06
-2.93711e-08
-1.01038e-06
-3.2332e-08
-9.91167e-07
-3.52211e-08
-9.70436e-07
-3.80257e-08
-9.48238e-07
-4.07334e-08
-9.24633e-07
-4.33316e-08
-8.99688e-07
-4.5808e-08
-8.73474e-07
-4.81502e-08
-8.46071e-07
-5.03465e-08
-8.17565e-07
-5.23855e-08
-7.88046e-07
-5.4256e-08
-7.57611e-07
-5.59477e-08
-7.26363e-07
-5.74507e-08
-6.94407e-07
-5.8756e-08
-6.61855e-07
-5.98553e-08
-6.28822e-07
-6.07411e-08
-5.95427e-07
-6.1407e-08
-5.61791e-07
-6.18476e-08
-5.28037e-07
-6.20585e-08
-4.94292e-07
-6.20363e-08
-4.60682e-07
-6.1779e-08
-4.27334e-07
-6.12857e-08
-3.94375e-07
-6.05567e-08
-3.6193e-07
-5.95935e-08
-3.30124e-07
-5.83991e-08
-2.9908e-07
-5.69776e-08
-2.68916e-07
-5.53345e-08
-2.39747e-07
-5.34765e-08
-2.11685e-07
-5.14118e-08
-1.84836e-07
-4.91497e-08
-1.593e-07
-4.67009e-08
-1.3517e-07
-4.40775e-08
-1.12533e-07
-4.12928e-08
-9.14667e-08
-3.83615e-08
-7.20408e-08
-3.52999e-08
-5.4315e-08
-3.21254e-08
-3.83387e-08
-2.88575e-08
-2.41496e-08
-2.55171e-08
-1.17729e-08
-2.21271e-08
-1.22003e-09
-1.8713e-08
7.51286e-09
-1.53027e-08
1.44466e-08
-1.19274e-08
1.9621e-08
-8.62237e-09
2.30974e-08
-5.42764e-09
2.49617e-08
-2.38946e-09
2.5328e-08
4.38211e-10
2.43427e-08
2.99172e-09
2.21904e-08
5.19533e-09
1.90989e-08
6.95857e-09
1.53454e-08
8.17387e-09
1.12606e-08
8.71627e-09
7.23051e-09
8.44841e-09
3.69003e-09
7.23521e-09
1.10771e-09
4.98623e-09
1.79956e-09
9.6432e-10
-3.10226e-09
2.52756e-09
-5.86378e-09
3.80489e-09
-5.98739e-09
4.1492e-09
-4.11889e-09
3.06756e-09
-7.82052e-10
1.95251e-10
3.59303e-09
-4.72427e-09
8.66394e-09
-1.18585e-08
1.41647e-08
-2.13026e-08
1.98915e-08
-3.3094e-08
2.56897e-08
-4.72245e-08
3.14432e-08
-6.3651e-08
3.70655e-08
-8.23033e-08
4.24931e-08
-1.03092e-07
4.76804e-08
-1.25911e-07
5.25953e-08
-1.50648e-07
5.72169e-08
-1.77181e-07
6.15322e-08
-2.05385e-07
6.55348e-08
-2.35132e-07
6.9223e-08
-2.66297e-07
7.2599e-08
-2.98752e-07
7.56678e-08
-3.32374e-07
7.84361e-08
-3.67041e-07
8.09122e-08
-4.02637e-07
8.31054e-08
-4.39045e-07
8.50252e-08
-4.76155e-07
8.66813e-08
-5.1386e-07
8.80833e-08
-5.52055e-07
8.92406e-08
-5.90641e-07
9.0162e-08
-6.29519e-07
9.08556e-08
-6.68596e-07
9.1329e-08
-7.07779e-07
9.15889e-08
-7.4698e-07
9.16414e-08
-7.86112e-07
9.14916e-08
-8.25088e-07
9.1144e-08
-8.63826e-07
9.06023e-08
-9.02242e-07
8.98695e-08
-9.40255e-07
8.8948e-08
-9.77784e-07
8.78395e-08
-1.01475e-06
8.65452e-08
-1.05107e-06
8.50661e-08
-1.08667e-06
8.34025e-08
-1.12147e-06
8.15547e-08
-1.15539e-06
7.95227e-08
-1.18834e-06
7.73065e-08
-1.22026e-06
7.49061e-08
-1.25106e-06
7.23214e-08
-1.28067e-06
6.95528e-08
-1.309e-06
6.66009e-08
-1.33598e-06
6.34665e-08
-1.36153e-06
6.0151e-08
-1.38558e-06
5.66565e-08
-1.40805e-06
5.29854e-08
-1.42888e-06
4.91409e-08
-1.44798e-06
4.51271e-08
-1.46529e-06
4.09487e-08
-1.48074e-06
3.66114e-08
-1.49428e-06
3.21218e-08
-1.50584e-06
2.74874e-08
-1.51536e-06
2.27167e-08
-1.52279e-06
1.78193e-08
-1.52808e-06
1.28058e-08
-1.5312e-06
7.68763e-09
-1.5321e-06
2.47748e-09
-1.53075e-06
-2.81101e-09
-1.52713e-06
-8.16322e-09
-1.52122e-06
-1.35636e-08
-1.513e-06
-1.89955e-08
-1.50248e-06
-2.44417e-08
-1.48965e-06
-2.98838e-08
-1.47453e-06
-3.53029e-08
-1.45713e-06
-4.06795e-08
-1.43749e-06
-4.59932e-08
-1.41564e-06
-5.12234e-08
-1.39162e-06
-5.6349e-08
-1.36549e-06
-6.13487e-08
-1.33732e-06
-6.6201e-08
-1.30717e-06
-7.08843e-08
-1.27512e-06
-7.53773e-08
-1.24127e-06
-7.96589e-08
-1.20571e-06
-8.37082e-08
-1.16855e-06
-8.75051e-08
-1.12991e-06
-9.103e-08
-1.0899e-06
-9.42641e-08
-1.04866e-06
-9.71898e-08
-1.00632e-06
-9.97903e-08
-9.63026e-07
-1.0205e-07
-9.18926e-07
-1.03955e-07
-8.74173e-07
-1.05493e-07
-8.28927e-07
-1.06653e-07
-7.8335e-07
-1.07425e-07
-7.37606e-07
-1.07803e-07
-6.91862e-07
-1.0778e-07
-6.46288e-07
-1.07353e-07
-6.01053e-07
-1.06521e-07
-5.56326e-07
-1.05284e-07
-5.12274e-07
-1.03645e-07
-4.69063e-07
-1.0161e-07
-4.26856e-07
-9.91848e-08
-3.85811e-07
-9.63797e-08
-3.46081e-07
-9.32062e-08
-3.07814e-07
-8.96784e-08
-2.71152e-07
-8.58125e-08
-2.36225e-07
-8.16272e-08
-2.0316e-07
-7.71432e-08
-1.72069e-07
-7.23838e-08
-1.43056e-07
-6.73746e-08
-1.16212e-07
-6.21436e-08
-9.16158e-08
-5.67215e-08
-6.93315e-08
-5.11419e-08
-4.94074e-08
-4.54412e-08
-3.18752e-08
-3.96593e-08
-1.67481e-08
-3.38401e-08
-4.01885e-09
-2.8032e-08
6.34228e-09
-2.22886e-08
1.43898e-08
-1.66699e-08
2.0206e-08
-1.12438e-08
2.39041e-08
-6.0876e-09
2.56323e-08
-1.29008e-09
2.55782e-08
3.04584e-09
2.3973e-08
6.80044e-09
2.10972e-08
9.83438e-09
1.72843e-08
1.19868e-08
1.29247e-08
1.30759e-08
8.46777e-09
1.29053e-08
4.42264e-09
1.12804e-08
1.36472e-09
8.04412e-09
3.16428e-09
7.23449e-10
-3.82568e-09
1.65248e-09
-6.79303e-09
1.90217e-09
-6.23722e-09
8.13494e-10
-3.03018e-09
-2.11755e-09
2.14909e-09
-7.26797e-09
8.74343e-09
-1.49074e-08
1.63032e-08
-2.52153e-08
2.44725e-08
-3.82961e-08
3.29723e-08
-5.41928e-08
4.15864e-08
-7.28982e-08
5.01486e-08
-9.43655e-08
5.85327e-08
-1.18517e-07
6.66441e-08
-1.4525e-07
7.44133e-08
-1.74445e-07
8.17904e-08
-2.05969e-07
8.87413e-08
-2.39681e-07
9.52441e-08
-2.75433e-07
1.01287e-07
-3.13074e-07
1.06864e-07
-3.52452e-07
1.11977e-07
-3.93416e-07
1.16632e-07
-4.35815e-07
1.20836e-07
-4.79503e-07
1.246e-07
-5.24335e-07
1.27938e-07
-5.70171e-07
1.30861e-07
-6.16874e-07
1.33384e-07
-6.6431e-07
1.3552e-07
-7.12352e-07
1.37282e-07
-7.60873e-07
1.38683e-07
-8.09752e-07
1.39735e-07
-8.58871e-07
1.40448e-07
-9.08116e-07
1.40833e-07
-9.57372e-07
1.40898e-07
-1.00653e-06
1.40651e-07
-1.05549e-06
1.40098e-07
-1.10413e-06
1.39245e-07
-1.15236e-06
1.38097e-07
-1.20007e-06
1.36657e-07
-1.24715e-06
1.34928e-07
-1.29352e-06
1.32913e-07
-1.33907e-06
1.30611e-07
-1.38369e-06
1.28026e-07
-1.42729e-06
1.25156e-07
-1.46977e-06
1.22003e-07
-1.51103e-06
1.18566e-07
-1.55097e-06
1.14847e-07
-1.5895e-06
1.10845e-07
-1.6265e-06
1.06561e-07
-1.6619e-06
1.01997e-07
-1.69559e-06
9.71542e-08
-1.72747e-06
9.20354e-08
-1.75746e-06
8.66437e-08
-1.78546e-06
8.09836e-08
-1.81138e-06
7.50603e-08
-1.83513e-06
6.88802e-08
-1.85663e-06
6.24511e-08
-1.8758e-06
5.57819e-08
-1.89256e-06
4.8883e-08
-1.90684e-06
4.17661e-08
-1.91857e-06
3.44444e-08
-1.92768e-06
2.69329e-08
-1.93413e-06
1.92476e-08
-1.93784e-06
1.14064e-08
-1.9388e-06
3.42881e-09
-1.93694e-06
-4.66447e-09
-1.93225e-06
-1.28511e-08
-1.92471e-06
-2.11072e-08
-1.9143e-06
-2.94077e-08
-1.90101e-06
-3.77261e-08
-1.88486e-06
-4.60348e-08
-1.86586e-06
-5.43051e-08
-1.84403e-06
-6.25072e-08
-1.81942e-06
-7.06107e-08
-1.79206e-06
-7.85841e-08
-1.76201e-06
-8.63957e-08
-1.72934e-06
-9.40134e-08
-1.69414e-06
-1.01405e-07
-1.65649e-06
-1.08537e-07
-1.61649e-06
-1.15379e-07
-1.57425e-06
-1.21898e-07
-1.52989e-06
-1.28063e-07
-1.48355e-06
-1.33844e-07
-1.43537e-06
-1.39212e-07
-1.3855e-06
-1.44137e-07
-1.33409e-06
-1.48595e-07
-1.28132e-06
-1.52559e-07
-1.22737e-06
-1.56006e-07
-1.17241e-06
-1.58916e-07
-1.11663e-06
-1.6127e-07
-1.06023e-06
-1.63051e-07
-1.00341e-06
-1.64245e-07
-9.46373e-07
-1.64842e-07
-8.8932e-07
-1.64833e-07
-8.32459e-07
-1.64214e-07
-7.75999e-07
-1.62981e-07
-7.20146e-07
-1.61137e-07
-6.65107e-07
-1.58685e-07
-6.11083e-07
-1.55633e-07
-5.58275e-07
-1.51993e-07
-5.06876e-07
-1.47779e-07
-4.57074e-07
-1.43008e-07
-4.0905e-07
-1.37703e-07
-3.62975e-07
-1.31887e-07
-3.19013e-07
-1.2559e-07
-2.77314e-07
-1.18842e-07
-2.38018e-07
-1.1168e-07
-2.0125e-07
-1.04142e-07
-1.67121e-07
-9.6272e-08
-1.35727e-07
-8.81156e-08
-1.07145e-07
-7.97244e-08
-8.14321e-08
-7.11539e-08
-5.86265e-08
-6.24649e-08
-3.87427e-08
-5.37239e-08
-2.17709e-08
-4.50039e-08
-7.67385e-09
-3.63856e-08
3.61489e-09
-2.79587e-08
1.21946e-08
-1.98235e-08
1.82001e-08
-1.20932e-08
2.18062e-08
-4.89617e-09
2.32307e-08
1.62133e-09
2.27391e-08
7.29198e-09
2.06487e-08
1.19249e-08
1.73318e-08
1.53036e-08
1.32203e-08
1.71873e-08
8.80992e-09
1.73157e-08
4.66841e-09
1.54219e-08
1.45598e-09
1.12565e-08
4.62027e-09
3.75597e-10
-4.2012e-09
4.14618e-10
-6.83202e-09
-7.07007e-10
-5.11576e-09
-3.6204e-09
-1.16935e-10
-8.81304e-09
7.34171e-09
-1.66527e-08
1.65831e-08
-2.74047e-08
2.70552e-08
-4.1247e-08
3.83147e-08
-5.82833e-08
5.00086e-08
-7.85553e-08
6.18583e-08
-1.02053e-07
7.36459e-08
-1.28723e-07
8.52031e-08
-1.58481e-07
9.64017e-08
-1.91213e-07
1.07145e-07
-2.26786e-07
1.17364e-07
-2.65053e-07
1.27008e-07
-3.05854e-07
1.36045e-07
-3.49023e-07
1.44455e-07
-3.94388e-07
1.52229e-07
-4.41776e-07
1.59365e-07
-4.91013e-07
1.65869e-07
-5.41927e-07
1.71749e-07
-5.94347e-07
1.7702e-07
-6.48105e-07
1.81696e-07
-7.03037e-07
1.85794e-07
-7.58984e-07
1.89331e-07
-8.15789e-07
1.92325e-07
-8.733e-07
1.94793e-07
-9.31368e-07
1.96752e-07
-9.8985e-07
1.98217e-07
-1.04861e-06
1.99203e-07
-1.1075e-06
1.99724e-07
-1.16639e-06
1.99791e-07
-1.22515e-06
1.99414e-07
-1.28366e-06
1.98602e-07
-1.34178e-06
1.97364e-07
-1.39938e-06
1.95705e-07
-1.45636e-06
1.93631e-07
-1.51257e-06
1.91146e-07
-1.56791e-06
1.88252e-07
-1.62225e-06
1.84952e-07
-1.67548e-06
1.81248e-07
-1.72746e-06
1.77141e-07
-1.77809e-06
1.72631e-07
-1.82725e-06
1.67721e-07
-1.87481e-06
1.62409e-07
-1.92066e-06
1.56698e-07
-1.96469e-06
1.5059e-07
-2.00678e-06
1.44085e-07
-2.04681e-06
1.37189e-07
-2.08468e-06
1.29904e-07
-2.12027e-06
1.22236e-07
-2.15348e-06
1.14191e-07
-2.1842e-06
1.05778e-07
-2.21232e-06
9.70053e-08
-2.23776e-06
8.78849e-08
-2.26041e-06
7.84298e-08
-2.28018e-06
6.86549e-08
-2.29699e-06
5.8577e-08
-2.31076e-06
4.82152e-08
-2.32142e-06
3.75905e-08
-2.32889e-06
2.6726e-08
-2.33314e-06
1.56471e-08
-2.33409e-06
4.38097e-09
-2.33171e-06
-7.04284e-09
-2.32597e-06
-1.85929e-08
-2.31684e-06
-3.02358e-08
-2.30431e-06
-4.19362e-08
-2.28838e-06
-5.3657e-08
-2.26905e-06
-6.53597e-08
-2.24636e-06
-7.7004e-08
-2.22031e-06
-8.85484e-08
-2.19097e-06
-9.99503e-08
-2.15839e-06
-1.11166e-07
-2.12264e-06
-1.22151e-07
-2.08379e-06
-1.32862e-07
-2.04194e-06
-1.43252e-07
-1.9972e-06
-1.53277e-07
-1.94969e-06
-1.62892e-07
-1.89953e-06
-1.72053e-07
-1.84688e-06
-1.80717e-07
-1.79188e-06
-1.88842e-07
-1.73471e-06
-1.96386e-07
-1.67554e-06
-2.03312e-07
-1.61455e-06
-2.09581e-07
-1.55195e-06
-2.15161e-07
-1.48794e-06
-2.20017e-07
-1.42273e-06
-2.24123e-07
-1.35655e-06
-2.27451e-07
-1.28962e-06
-2.29978e-07
-1.22218e-06
-2.31687e-07
-1.15446e-06
-2.32561e-07
-1.0867e-06
-2.32589e-07
-1.01915e-06
-2.31765e-07
-9.52048e-07
-2.30086e-07
-8.85633e-07
-2.27552e-07
-8.20146e-07
-2.24172e-07
-7.55825e-07
-2.19954e-07
-6.92902e-07
-2.14916e-07
-6.31603e-07
-2.09077e-07
-5.72149e-07
-2.02463e-07
-5.14748e-07
-1.95103e-07
-4.59603e-07
-1.87033e-07
-4.06901e-07
-1.78291e-07
-3.5682e-07
-1.68923e-07
-3.09522e-07
-1.58979e-07
-2.65152e-07
-1.48512e-07
-2.23839e-07
-1.37584e-07
-1.85694e-07
-1.2626e-07
-1.50806e-07
-1.14612e-07
-1.19243e-07
-1.02718e-07
-9.10465e-08
-9.06613e-08
-6.62343e-08
-7.85362e-08
-4.47946e-08
-6.64436e-08
-2.66854e-08
-5.44949e-08
-1.18308e-08
-4.28133e-08
-1.19027e-10
-3.15352e-08
8.60103e-09
-2.08133e-08
1.45231e-08
-1.08183e-08
1.78872e-08
-1.74271e-09
1.89825e-08
6.19663e-09
1.81517e-08
1.27556e-08
1.57941e-08
1.76612e-08
1.23705e-08
2.06109e-08
8.40996e-09
2.12762e-08
4.52252e-09
1.93093e-08
1.42364e-09
1.43554e-08
6.04393e-09
-3.7878e-11
-4.16336e-09
-1.06469e-09
-5.8051e-09
-3.80847e-09
-2.37201e-09
-8.84329e-09
4.91772e-09
-1.66181e-08
1.51164e-08
-2.74739e-08
2.74389e-08
-4.16574e-08
4.12388e-08
-5.93335e-08
5.59907e-08
-8.0596e-08
7.1271e-08
-1.05478e-07
8.67404e-08
-1.33962e-07
1.0213e-07
-1.65988e-07
1.17229e-07
-2.01459e-07
1.31873e-07
-2.40253e-07
1.45939e-07
-2.82225e-07
1.59335e-07
-3.27211e-07
1.71995e-07
-3.75039e-07
1.83873e-07
-4.25524e-07
1.9494e-07
-4.78478e-07
2.05183e-07
-5.33708e-07
2.14595e-07
-5.91022e-07
2.23182e-07
-6.50226e-07
2.30953e-07
-7.11129e-07
2.37923e-07
-7.73543e-07
2.4411e-07
-8.37282e-07
2.49533e-07
-9.02166e-07
2.54214e-07
-9.68016e-07
2.58175e-07
-1.03466e-06
2.61436e-07
-1.10193e-06
2.64019e-07
-1.16965e-06
2.65944e-07
-1.23768e-06
2.67228e-07
-1.30584e-06
2.67888e-07
-1.37399e-06
2.67939e-07
-1.44197e-06
2.67395e-07
-1.50964e-06
2.66268e-07
-1.57684e-06
2.64567e-07
-1.64343e-06
2.623e-07
-1.70928e-06
2.59476e-07
-1.77423e-06
2.56097e-07
-1.83815e-06
2.52171e-07
-1.9009e-06
2.47698e-07
-1.96233e-06
2.42683e-07
-2.02232e-06
2.37127e-07
-2.08072e-06
2.31032e-07
-2.1374e-06
2.24399e-07
-2.19222e-06
2.1723e-07
-2.24505e-06
2.09527e-07
-2.29575e-06
2.01293e-07
-2.3442e-06
1.92532e-07
-2.39026e-06
1.83248e-07
-2.4338e-06
1.73447e-07
-2.4747e-06
1.63138e-07
-2.51284e-06
1.52328e-07
-2.54809e-06
1.41031e-07
-2.58034e-06
1.29257e-07
-2.60948e-06
1.17025e-07
-2.6354e-06
1.0435e-07
-2.658e-06
9.12541e-08
-2.67719e-06
7.77597e-08
-2.69286e-06
6.38925e-08
-2.70495e-06
4.96808e-08
-2.71338e-06
3.51558e-08
-2.71809e-06
2.03511e-08
-2.71901e-06
5.30352e-09
-2.7161e-06
-9.94783e-09
-2.70934e-06
-2.5361e-08
-2.69868e-06
-4.08917e-08
-2.68412e-06
-5.64929e-08
-2.66567e-06
-7.21156e-08
-2.64332e-06
-8.77086e-08
-2.6171e-06
-1.03219e-07
-2.58706e-06
-1.18591e-07
-2.55324e-06
-1.3377e-07
-2.51571e-06
-1.48697e-07
-2.47454e-06
-1.63315e-07
-2.42984e-06
-1.77563e-07
-2.38171e-06
-1.91384e-07
-2.33027e-06
-2.04718e-07
-2.27566e-06
-2.17506e-07
-2.21802e-06
-2.2969e-07
-2.15752e-06
-2.41214e-07
-2.09434e-06
-2.52021e-07
-2.02867e-06
-2.6206e-07
-1.9607e-06
-2.71278e-07
-1.89066e-06
-2.79627e-07
-1.81875e-06
-2.87063e-07
-1.74523e-06
-2.93542e-07
-1.67032e-06
-2.99028e-07
-1.59429e-06
-3.03485e-07
-1.51738e-06
-3.06885e-07
-1.43987e-06
-3.09202e-07
-1.36201e-06
-3.10416e-07
-1.28409e-06
-3.10514e-07
-1.20637e-06
-3.09485e-07
-1.12913e-06
-3.07327e-07
-1.05264e-06
-3.04042e-07
-9.77171e-07
-2.99637e-07
-9.02997e-07
-2.94129e-07
-8.30377e-07
-2.87536e-07
-7.59567e-07
-2.79887e-07
-6.90816e-07
-2.71214e-07
-6.24361e-07
-2.61558e-07
-5.60429e-07
-2.50965e-07
-4.99234e-07
-2.39486e-07
-4.40975e-07
-2.27182e-07
-3.85836e-07
-2.14118e-07
-3.33981e-07
-2.00367e-07
-2.85556e-07
-1.86009e-07
-2.40686e-07
-1.71131e-07
-1.99471e-07
-1.55827e-07
-1.61987e-07
-1.40201e-07
-1.28284e-07
-1.24364e-07
-9.83823e-08
-1.08438e-07
-7.22692e-08
-9.25567e-08
-4.99001e-08
-7.68641e-08
-3.11934e-08
-6.152e-08
-1.60287e-08
-4.66999e-08
-4.24385e-09
-3.25981e-08
4.36802e-09
-1.94302e-08
1.00615e-08
-7.43616e-09
1.31418e-08
3.11628e-09
1.39683e-08
1.19291e-08
1.29581e-08
1.86714e-08
1.05911e-08
2.2978e-08
7.41796e-09
2.44492e-08
4.07392e-09
2.26533e-08
1.30135e-09
1.7128e-08
7.34529e-09
-4.90248e-10
-3.67324e-09
-2.70021e-09
-3.59518e-09
-7.24435e-09
2.1722e-09
-1.46204e-08
1.22937e-08
-2.52222e-08
2.57181e-08
-3.935e-08
4.15667e-08
-5.72202e-08
5.91089e-08
-7.89745e-08
7.77449e-08
-1.04689e-07
9.69852e-08
-1.34381e-07
1.16433e-07
-1.68022e-07
1.35771e-07
-2.05539e-07
1.54745e-07
-2.46825e-07
1.73159e-07
-2.91745e-07
1.9086e-07
-3.40142e-07
2.07732e-07
-3.9184e-07
2.23693e-07
-4.4665e-07
2.38683e-07
-5.04375e-07
2.52665e-07
-5.64809e-07
2.65616e-07
-6.27743e-07
2.7753e-07
-6.92967e-07
2.88406e-07
-7.6027e-07
2.98256e-07
-8.29442e-07
3.07095e-07
-9.00277e-07
3.14944e-07
-9.72569e-07
3.21825e-07
-1.04612e-06
3.27763e-07
-1.12073e-06
3.32784e-07
-1.1962e-06
3.36912e-07
-1.27236e-06
3.40174e-07
-1.34901e-06
3.42592e-07
-1.42597e-06
3.44189e-07
-1.50306e-06
3.44985e-07
-1.58012e-06
3.44998e-07
-1.65697e-06
3.44245e-07
-1.73345e-06
3.42741e-07
-1.80938e-06
3.40497e-07
-1.8846e-06
3.37525e-07
-1.95896e-06
3.33832e-07
-2.03229e-06
3.29426e-07
-2.10443e-06
3.24312e-07
-2.17522e-06
3.18496e-07
-2.24452e-06
3.11981e-07
-2.31216e-06
3.04769e-07
-2.378e-06
2.96863e-07
-2.44186e-06
2.88267e-07
-2.50362e-06
2.78982e-07
-2.5631e-06
2.69013e-07
-2.62017e-06
2.58363e-07
-2.67468e-06
2.47039e-07
-2.72648e-06
2.35045e-07
-2.77542e-06
2.22392e-07
-2.82137e-06
2.0909e-07
-2.8642e-06
1.95151e-07
-2.90376e-06
1.8059e-07
-2.93992e-06
1.65426e-07
-2.97258e-06
1.49677e-07
-3.0016e-06
1.33369e-07
-3.02687e-06
1.16528e-07
-3.04829e-06
9.91825e-08
-3.06577e-06
8.13671e-08
-3.0792e-06
6.31178e-08
-3.08852e-06
4.44749e-08
-3.09365e-06
2.54817e-08
-3.09454e-06
6.1852e-09
-3.09112e-06
-1.33645e-08
-3.08337e-06
-3.31138e-08
-3.07125e-06
-5.30061e-08
-3.05476e-06
-7.29817e-08
-3.0339e-06
-9.29781e-08
-3.00868e-06
-1.1293e-07
-2.97913e-06
-1.32771e-07
-2.94529e-06
-1.5243e-07
-2.90722e-06
-1.71837e-07
-2.865e-06
-1.90918e-07
-2.81872e-06
-2.096e-07
-2.76847e-06
-2.27808e-07
-2.71439e-06
-2.45468e-07
-2.6566e-06
-2.62505e-07
-2.59526e-06
-2.78844e-07
-2.53054e-06
-2.94412e-07
-2.46262e-06
-3.09138e-07
-2.39169e-06
-3.22952e-07
-2.31796e-06
-3.35786e-07
-2.24166e-06
-3.47577e-07
-2.16302e-06
-3.58263e-07
-2.0823e-06
-3.67787e-07
-1.99975e-06
-3.76096e-07
-1.91563e-06
-3.83143e-07
-1.83023e-06
-3.88885e-07
-1.74383e-06
-3.93283e-07
-1.65673e-06
-3.96308e-07
-1.56921e-06
-3.97933e-07
-1.48158e-06
-3.98141e-07
-1.39415e-06
-3.96921e-07
-1.30721e-06
-3.94267e-07
-1.22107e-06
-3.90183e-07
-1.13602e-06
-3.8468e-07
-1.05237e-06
-3.77776e-07
-9.70413e-07
-3.69498e-07
-8.9042e-07
-3.5988e-07
-8.1267e-07
-3.48964e-07
-7.37427e-07
-3.36801e-07
-6.64943e-07
-3.23449e-07
-5.95453e-07
-3.08976e-07
-5.29179e-07
-2.93456e-07
-4.66324e-07
-2.76974e-07
-4.07069e-07
-2.59622e-07
-3.51578e-07
-2.41501e-07
-2.99988e-07
-2.22721e-07
-2.52411e-07
-2.03404e-07
-2.08933e-07
-1.83679e-07
-1.6961e-07
-1.63687e-07
-1.34466e-07
-1.43583e-07
-1.03491e-07
-1.23532e-07
-7.66396e-08
-1.03715e-07
-5.38277e-08
-8.4332e-08
-3.493e-08
-6.55977e-08
-1.97778e-08
-4.77503e-08
-8.15636e-09
-3.10516e-08
1.97672e-10
-1.57902e-08
5.59911e-09
-2.28514e-09
8.4171e-09
9.11109e-09
9.07886e-09
1.80096e-08
8.07478e-09
2.39821e-08
5.96624e-09
2.65577e-08
3.39771e-09
2.52218e-08
1.11504e-09
1.94106e-08
8.46031e-09
-9.64486e-10
-2.70883e-09
-4.43294e-09
-1.26896e-10
-1.09e-08
8.63934e-09
-2.07756e-08
2.21693e-08
-3.43869e-08
3.93294e-08
-5.19829e-08
5.91625e-08
-7.37398e-08
8.08657e-08
-9.97677e-08
1.03773e-07
-1.30117e-07
1.27335e-07
-1.64787e-07
1.51103e-07
-2.03729e-07
1.74713e-07
-2.46856e-07
1.97872e-07
-2.94047e-07
2.2035e-07
-3.45154e-07
2.41966e-07
-4.00005e-07
2.62584e-07
-4.58413e-07
2.82101e-07
-5.20176e-07
3.00445e-07
-5.85079e-07
3.17568e-07
-6.52904e-07
3.33442e-07
-7.23427e-07
3.48052e-07
-7.96421e-07
3.614e-07
-8.71659e-07
3.73494e-07
-9.48914e-07
3.84351e-07
-1.02796e-06
3.93993e-07
-1.10858e-06
4.02445e-07
-1.19056e-06
4.09737e-07
-1.27367e-06
4.15896e-07
-1.35771e-06
4.20953e-07
-1.44247e-06
4.24936e-07
-1.52775e-06
4.27873e-07
-1.61335e-06
4.29789e-07
-1.69908e-06
4.3071e-07
-1.78474e-06
4.30656e-07
-1.87014e-06
4.29647e-07
-1.9551e-06
4.27701e-07
-2.03943e-06
4.24832e-07
-2.12296e-06
4.21053e-07
-2.2055e-06
4.16375e-07
-2.28688e-06
4.10806e-07
-2.36693e-06
4.04354e-07
-2.44545e-06
3.97025e-07
-2.5223e-06
3.88823e-07
-2.59728e-06
3.79753e-07
-2.67024e-06
3.69819e-07
-2.741e-06
3.59025e-07
-2.80939e-06
3.47374e-07
-2.87525e-06
3.34872e-07
-2.93841e-06
3.21526e-07
-2.99871e-06
3.07341e-07
-3.05599e-06
2.92329e-07
-3.1101e-06
2.76499e-07
-3.16088e-06
2.59867e-07
-3.20817e-06
2.42447e-07
-3.25184e-06
2.24261e-07
-3.29175e-06
2.0533e-07
-3.32775e-06
1.85681e-07
-3.35973e-06
1.65344e-07
-3.38755e-06
1.44351e-07
-3.41111e-06
1.22741e-07
-3.4303e-06
1.00556e-07
-3.44502e-06
7.784e-08
-3.45519e-06
5.46443e-08
-3.46073e-06
3.10226e-08
-3.46158e-06
7.03321e-09
-3.45768e-06
-1.72617e-08
-3.449e-06
-4.17958e-08
-3.43551e-06
-6.64992e-08
-3.41719e-06
-9.1298e-08
-3.39405e-06
-1.16115e-07
-3.36611e-06
-1.40871e-07
-3.3334e-06
-1.65482e-07
-3.29597e-06
-1.89862e-07
-3.25388e-06
-2.13925e-07
-3.20722e-06
-2.3758e-07
-3.15608e-06
-2.60737e-07
-3.10058e-06
-2.83305e-07
-3.04086e-06
-3.05192e-07
-2.97706e-06
-3.26306e-07
-2.90935e-06
-3.46557e-07
-2.8379e-06
-3.65854e-07
-2.76293e-06
-3.8411e-07
-2.68464e-06
-4.01239e-07
-2.60327e-06
-4.17161e-07
-2.51905e-06
-4.31794e-07
-2.43225e-06
-4.45066e-07
-2.34313e-06
-4.56906e-07
-2.25198e-06
-4.67249e-07
-2.15908e-06
-4.76038e-07
-2.06475e-06
-4.83219e-07
-1.96929e-06
-4.88746e-07
-1.87301e-06
-4.92582e-07
-1.77625e-06
-4.94697e-07
-1.67932e-06
-4.95067e-07
-1.58256e-06
-4.93679e-07
-1.4863e-06
-4.90527e-07
-1.39087e-06
-4.85616e-07
-1.29659e-06
-4.78958e-07
-1.20379e-06
-4.70577e-07
-1.11279e-06
-4.60505e-07
-1.02388e-06
-4.48784e-07
-9.37382e-07
-4.35466e-07
-8.53569e-07
-4.20613e-07
-7.7272e-07
-4.04298e-07
-6.95093e-07
-3.86603e-07
-6.20928e-07
-3.67621e-07
-5.50447e-07
-3.47455e-07
-4.8385e-07
-3.26218e-07
-4.21315e-07
-3.04036e-07
-3.62993e-07
-2.81043e-07
-3.09008e-07
-2.57388e-07
-2.59456e-07
-2.33231e-07
-2.144e-07
-2.08743e-07
-1.7387e-07
-1.84113e-07
-1.3786e-07
-1.59542e-07
-1.06326e-07
-1.35249e-07
-7.91842e-08
-1.11474e-07
-5.6308e-08
-8.84739e-08
-3.75262e-08
-6.65321e-08
-2.26208e-08
-4.5957e-08
-1.13243e-08
-2.70866e-08
-3.31795e-09
-1.02915e-08
1.77152e-09
4.02164e-09
4.37491e-09
1.54062e-08
4.98529e-09
2.33717e-08
4.16471e-09
2.73783e-08
2.55364e-09
2.68329e-08
8.83846e-10
2.10804e-08
9.34413e-09
-1.44977e-09
-1.25901e-09
-6.22232e-09
4.64547e-09
-1.4693e-08
1.71099e-08
-2.71781e-08
3.46544e-08
-4.39308e-08
5.6082e-08
-6.51407e-08
8.03724e-08
-9.09369e-08
1.06662e-07
-1.21391e-07
1.34227e-07
-1.56523e-07
1.62467e-07
-1.96304e-07
1.90884e-07
-2.40666e-07
2.19074e-07
-2.89502e-07
2.46708e-07
-3.42675e-07
2.73523e-07
-4.00021e-07
2.99313e-07
-4.61356e-07
3.23918e-07
-5.26476e-07
3.47221e-07
-5.95166e-07
3.69135e-07
-6.67198e-07
3.89601e-07
-7.42341e-07
4.08584e-07
-8.20354e-07
4.26065e-07