/*--------------------------------*- C++ -*----------------------------------*\
  =========                 |
  \\      /  F ield         | OpenFOAM: The Open Source CFD Toolbox
   \\    /   O peration     | Website:  https://openfoam.org
    \\  /    A nd           | Version:  9
     \\/     M anipulation  |
\*---------------------------------------------------------------------------*/
FoamFile
{
    format      ascii;
    class       volVectorField;
    location    "0.7";
    object      U;
}
// * * * * * * * * * * * * * * * * * * * * * * * * * * * * * * * * * * * * * //

dimensions      [0 1 -1 0 0 0 0];

internalField   nonuniform List<vector> 
16384
(
(1.30618e-05 -1.34103e-05 0)
(8.0929e-05 -4.46091e-05 0)
(0.000205364 -5.76127e-05 0)
(0.000338498 -5.58426e-05 0)
(0.000448711 -4.54547e-05 0)
(0.000519141 -3.03695e-05 0)
(0.000539959 -1.29031e-05 0)
(0.000505713 5.54696e-06 0)
(0.000413987 2.41398e-05 0)
(0.000264377 4.23676e-05 0)
(5.77887e-05 5.99214e-05 0)
(-0.000203995 7.66171e-05 0)
(-0.000518601 9.23487e-05 0)
(-0.000883265 0.000107059 0)
(-0.00129499 0.000120723 0)
(-0.00175064 0.00013334 0)
(-0.00224706 0.000144925 0)
(-0.00278106 0.000155508 0)
(-0.00334953 0.000165123 0)
(-0.00394939 0.000173811 0)
(-0.00457771 0.000181614 0)
(-0.00523162 0.000188575 0)
(-0.00590839 0.00019474 0)
(-0.0066054 0.000200152 0)
(-0.00732017 0.000204853 0)
(-0.00805031 0.000208882 0)
(-0.00879356 0.000212277 0)
(-0.00954775 0.000215072 0)
(-0.0103108 0.000217298 0)
(-0.0110808 0.000218982 0)
(-0.0118559 0.000220151 0)
(-0.0126341 0.000220825 0)
(-0.0134139 0.000221023 0)
(-0.0141934 0.00022076 0)
(-0.014971 0.000220048 0)
(-0.0157452 0.000218898 0)
(-0.0165143 0.000217316 0)
(-0.0172767 0.000215306 0)
(-0.018031 0.000212872 0)
(-0.0187755 0.000210014 0)
(-0.0195089 0.000206732 0)
(-0.0202294 0.000203022 0)
(-0.0209356 0.000198883 0)
(-0.021626 0.00019431 0)
(-0.0222989 0.000189298 0)
(-0.0229529 0.000183844 0)
(-0.0235863 0.000177942 0)
(-0.0241976 0.00017159 0)
(-0.0247852 0.000164783 0)
(-0.0253475 0.000157519 0)
(-0.0258829 0.000149796 0)
(-0.0263898 0.000141616 0)
(-0.0268667 0.000132979 0)
(-0.027312 0.000123889 0)
(-0.0277242 0.000114352 0)
(-0.0281017 0.000104377 0)
(-0.0284432 9.3972e-05 0)
(-0.0287471 8.31517e-05 0)
(-0.0290121 7.19315e-05 0)
(-0.029237 6.03298e-05 0)
(-0.0294205 4.8368e-05 0)
(-0.0295614 3.60706e-05 0)
(-0.0296587 2.34649e-05 0)
(-0.0297115 1.05813e-05 0)
(-0.0297188 -2.54659e-06 0)
(-0.0296801 -1.58823e-05 0)
(-0.0295947 -2.93865e-05 0)
(-0.0294621 -4.30167e-05 0)
(-0.0292821 -5.67281e-05 0)
(-0.0290546 -7.04731e-05 0)
(-0.0287795 -8.42017e-05 0)
(-0.0284571 -9.78619e-05 0)
(-0.0280878 -0.000111399 0)
(-0.0276721 -0.000124759 0)
(-0.0272109 -0.000137882 0)
(-0.0267049 -0.000150713 0)
(-0.0261555 -0.00016319 0)
(-0.025564 -0.000175256 0)
(-0.0249318 -0.000186851 0)
(-0.0242608 -0.000197916 0)
(-0.0235529 -0.000208393 0)
(-0.0228102 -0.000218226 0)
(-0.0220351 -0.000227358 0)
(-0.0212299 -0.000235738 0)
(-0.0203974 -0.000243315 0)
(-0.0195405 -0.000250041 0)
(-0.018662 -0.000255873 0)
(-0.0177652 -0.000260769 0)
(-0.0168532 -0.000264693 0)
(-0.0159294 -0.000267614 0)
(-0.0149972 -0.000269504 0)
(-0.0140602 -0.000270341 0)
(-0.013122 -0.000270108 0)
(-0.0121862 -0.000268794 0)
(-0.0112564 -0.000266392 0)
(-0.0103364 -0.000262904 0)
(-0.00942985 -0.000258334 0)
(-0.00854028 -0.000252694 0)
(-0.00767132 -0.000246002 0)
(-0.00682646 -0.000238282 0)
(-0.00600913 -0.000229562 0)
(-0.0052226 -0.000219878 0)
(-0.00447006 -0.000209271 0)
(-0.00375452 -0.000197787 0)
(-0.00307882 -0.000185476 0)
(-0.00244561 -0.000172398 0)
(-0.00185735 -0.000158612 0)
(-0.00131623 -0.000144189 0)
(-0.000824237 -0.0001292 0)
(-0.000383045 -0.000113727 0)
(5.94822e-06 -9.78553e-05 0)
(0.000341672 -8.16795e-05 0)
(0.000623414 -6.53036e-05 0)
(0.000850849 -4.8843e-05 0)
(0.00102409 -3.24277e-05 0)
(0.00114376 -1.62077e-05 0)
(0.00121102 -3.59068e-07 0)
(0.00122771 1.49047e-05 0)
(0.00119648 2.93167e-05 0)
(0.00112094 4.25312e-05 0)
(0.00100592 5.40835e-05 0)
(0.000857809 6.33259e-05 0)
(0.000685091 6.9328e-05 0)
(0.000499025 7.07522e-05 0)
(0.000314405 6.57387e-05 0)
(0.00015068 5.1767e-05 0)
(3.48043e-05 2.64675e-05 0)
(-3.60062e-06 -3.5813e-06 0)
(4.44754e-05 -8.14771e-05 0)
(0.00019799 -0.000198166 0)
(0.000432827 -0.000238931 0)
(0.000663465 -0.000218972 0)
(0.000830247 -0.000158528 0)
(0.000896335 -7.26131e-05 0)
(0.000837048 2.84086e-05 0)
(0.000636837 0.000137443 0)
(0.000287295 0.000249676 0)
(-0.000214782 0.00036183 0)
(-0.000868878 0.000471673 0)
(-0.00167182 0.000577689 0)
(-0.00261853 0.000678869 0)
(-0.00370264 0.000774563 0)
(-0.00491687 0.000864367 0)
(-0.00625338 0.000948066 0)
(-0.007704 0.00102558 0)
(-0.00926041 0.00109694 0)
(-0.0109143 0.00116224 0)
(-0.0126574 0.00122164 0)
(-0.0144817 0.00127532 0)
(-0.0163792 0.00132348 0)
(-0.0183425 0.00136636 0)
(-0.0203642 0.00140418 0)
(-0.0224371 0.00143717 0)
(-0.0245547 0.00146555 0)
(-0.0267102 0.00148953 0)
(-0.0288977 0.00150932 0)
(-0.0311109 0.00152509 0)
(-0.0333444 0.00153702 0)
(-0.0355924 0.00154526 0)
(-0.0378498 0.00154994 0)
(-0.0401113 0.00155118 0)
(-0.0423719 0.00154908 0)
(-0.0446267 0.00154372 0)
(-0.0468711 0.00153516 0)
(-0.0491002 0.00152346 0)
(-0.0513094 0.00150866 0)
(-0.0534943 0.00149077 0)
(-0.0556502 0.00146981 0)
(-0.0577725 0.0014458 0)
(-0.0598569 0.00141871 0)
(-0.0618987 0.00138856 0)
(-0.0638935 0.00135531 0)
(-0.0658367 0.00131897 0)
(-0.0677238 0.0012795 0)
(-0.0695502 0.00123691 0)
(-0.0713114 0.00119116 0)
(-0.0730027 0.00114227 0)
(-0.0746197 0.00109023 0)
(-0.0761578 0.00103505 0)
(-0.0776124 0.000976733 0)
(-0.0789792 0.000915322 0)
(-0.0802536 0.000850852 0)
(-0.0814315 0.000783378 0)
(-0.0825085 0.000712968 0)
(-0.0834805 0.000639707 0)
(-0.0843436 0.000563697 0)
(-0.085094 0.000485057 0)
(-0.085728 0.000403924 0)
(-0.0862424 0.000320454 0)
(-0.0866339 0.000234823 0)
(-0.0868996 0.000147224 0)
(-0.0870371 5.78729e-05 0)
(-0.087044 -3.29982e-05 0)
(-0.0869185 -0.000125137 0)
(-0.086659 -0.000218272 0)
(-0.0862645 -0.000312115 0)
(-0.0857342 -0.000406361 0)
(-0.0850679 -0.000500688 0)
(-0.0842659 -0.000594759 0)
(-0.0833288 -0.000688226 0)
(-0.0822579 -0.000780727 0)
(-0.0810549 -0.000871891 0)
(-0.0797221 -0.000961338 0)
(-0.0782624 -0.00104868 0)
(-0.076679 -0.00113354 0)
(-0.0749759 -0.00121551 0)
(-0.0731576 -0.00129422 0)
(-0.0712291 -0.00136927 0)
(-0.0691958 -0.00144028 0)
(-0.067064 -0.00150689 0)
(-0.0648401 -0.00156873 0)
(-0.0625313 -0.00162546 0)
(-0.0601452 -0.00167676 0)
(-0.0576896 -0.00172231 0)
(-0.055173 -0.00176183 0)
(-0.0526042 -0.00179506 0)
(-0.0499923 -0.00182177 0)
(-0.0473468 -0.00184174 0)
(-0.0446774 -0.00185482 0)
(-0.041994 -0.00186085 0)
(-0.0393066 -0.00185972 0)
(-0.0366256 -0.00185139 0)
(-0.0339611 -0.00183579 0)
(-0.0313235 -0.00181296 0)
(-0.028723 -0.00178292 0)
(-0.0261697 -0.00174577 0)
(-0.0236738 -0.00170162 0)
(-0.0212448 -0.00165064 0)
(-0.0188925 -0.00159304 0)
(-0.016626 -0.00152905 0)
(-0.0144541 -0.00145896 0)
(-0.0123853 -0.00138309 0)
(-0.0104273 -0.00130179 0)
(-0.00858772 -0.00121547 0)
(-0.00687312 -0.00112456 0)
(-0.00528965 -0.00102954 0)
(-0.00384263 -0.000930933 0)
(-0.00253664 -0.000829312 0)
(-0.00137536 -0.000725296 0)
(-0.000361517 -0.000619561 0)
(0.000503185 -0.000512857 0)
(0.00121821 -0.000406014 0)
(0.00178428 -0.000299965 0)
(0.0022036 -0.000195774 0)
(0.00247997 -9.46727e-05 0)
(0.0026191 1.8852e-06 0)
(0.00262894 9.21501e-05 0)
(0.00252001 0.00017397 0)
(0.00230604 0.000244642 0)
(0.00200453 0.000300709 0)
(0.00163767 0.000337699 0)
(0.00123322 0.000349894 0)
(0.000824887 0.00033031 0)
(0.000452376 0.000271101 0)
(0.000166527 0.000166798 0)
(2.63145e-05 3.47294e-05 0)
(5.78394e-05 -0.000205965 0)
(0.000239819 -0.000433208 0)
(0.000493213 -0.000491864 0)
(0.000711166 -0.000419468 0)
(0.000820476 -0.000253541 0)
(0.000773757 -2.43876e-05 0)
(0.000537227 0.000245029 0)
(8.82798e-05 0.000537805 0)
(-0.000586349 0.000841693 0)
(-0.0014927 0.00114787 0)
(-0.00263134 0.00145001 0)
(-0.00399875 0.00174362 0)
(-0.00558835 0.00202553 0)
(-0.00739138 0.00229359 0)
(-0.00939752 0.00254637 0)
(-0.0115954 0.00278302 0)
(-0.0139728 0.00300308 0)
(-0.0165174 0.00320641 0)
(-0.0192165 0.00339312 0)
(-0.0220575 0.00356346 0)
(-0.025028 0.00371785 0)
(-0.0281157 0.00385675 0)
(-0.0313087 0.00398069 0)
(-0.0345954 0.00409025 0)
(-0.0379648 0.00418598 0)
(-0.0414059 0.00426847 0)
(-0.0449084 0.00433826 0)
(-0.0484623 0.00439587 0)
(-0.0520579 0.0044418 0)
(-0.055686 0.00447649 0)
(-0.0593375 0.00450036 0)
(-0.0630038 0.00451378 0)
(-0.0666765 0.00451705 0)
(-0.0703472 0.00451047 0)
(-0.074008 0.00449425 0)
(-0.0776511 0.00446859 0)
(-0.0812687 0.00443363 0)
(-0.0848532 0.00438949 0)
(-0.0883971 0.00433626 0)
(-0.091893 0.00427397 0)
(-0.0953333 0.00420267 0)
(-0.0987108 0.00412235 0)
(-0.102018 0.00403301 0)
(-0.105247 0.00393463 0)
(-0.108392 0.00382719 0)
(-0.111444 0.00371065 0)
(-0.114396 0.00358502 0)
(-0.117241 0.00345026 0)
(-0.119971 0.00330638 0)
(-0.122579 0.00315341 0)
(-0.125059 0.00299139 0)
(-0.127401 0.00282039 0)
(-0.129601 0.00264051 0)
(-0.131649 0.0024519 0)
(-0.13354 0.00225471 0)
(-0.135267 0.00204919 0)
(-0.136823 0.00183558 0)
(-0.138202 0.00161419 0)
(-0.139399 0.00138539 0)
(-0.140407 0.00114958 0)
(-0.14122 0.000907236 0)
(-0.141836 0.000658859 0)
(-0.142248 0.000405024 0)
(-0.142453 0.000146352 0)
(-0.142447 -0.000116478 0)
(-0.142228 -0.000382739 0)
(-0.141793 -0.00065165 0)
(-0.141141 -0.000922383 0)
(-0.140271 -0.00119406 0)
(-0.139182 -0.00146577 0)
(-0.137875 -0.00173655 0)
(-0.136352 -0.0020054 0)
(-0.134614 -0.00227129 0)
(-0.132665 -0.00253318 0)
(-0.130508 -0.00278999 0)
(-0.128148 -0.00304064 0)
(-0.12559 -0.00328401 0)
(-0.122841 -0.00351902 0)
(-0.119907 -0.00374456 0)
(-0.116798 -0.00395955 0)
(-0.113521 -0.00416292 0)
(-0.110087 -0.00435363 0)
(-0.106506 -0.00453068 0)
(-0.10279 -0.00469309 0)
(-0.0989495 -0.00483996 0)
(-0.0949985 -0.00497041 0)
(-0.0909499 -0.00508366 0)
(-0.0868179 -0.00517897 0)
(-0.0826167 -0.0052557 0)
(-0.0783615 -0.00531326 0)
(-0.0740676 -0.00535119 0)
(-0.0697508 -0.00536908 0)
(-0.0654269 -0.00536666 0)
(-0.0611121 -0.00534373 0)
(-0.0568228 -0.00530022 0)
(-0.0525751 -0.00523613 0)
(-0.0483852 -0.00515162 0)
(-0.0442693 -0.00504693 0)
(-0.0402431 -0.00492241 0)
(-0.036322 -0.00477854 0)
(-0.0325211 -0.00461591 0)
(-0.0288549 -0.00443521 0)
(-0.0253374 -0.00423726 0)
(-0.0219817 -0.00402298 0)
(-0.0188002 -0.00379342 0)
(-0.0158045 -0.00354972 0)
(-0.0130051 -0.00329317 0)
(-0.0104116 -0.00302516 0)
(-0.00803214 -0.0027472 0)
(-0.00587383 -0.00246097 0)
(-0.00394225 -0.00216827 0)
(-0.00224146 -0.0018711 0)
(-0.000773854 -0.00157163 0)
(0.00046004 -0.0012723 0)
(0.00146174 -0.000975811 0)
(0.00223506 -0.000685245 0)
(0.0027864 -0.000404119 0)
(0.00312505 -0.000136527 0)
(0.00326371 0.000112702 0)
(0.00321889 0.000337794 0)
(0.00301163 0.000531765 0)
(0.00266812 0.000686105 0)
(0.00222056 0.00079046 0)
(0.00170787 0.000832513 0)
(0.00117537 0.000798446 0)
(0.000674104 0.000674516 0)
(0.000270412 0.000452418 0)
(5.14074e-05 0.000150182 0)
(5.65163e-05 -0.00033999 0)
(0.00022127 -0.000665113 0)
(0.000423147 -0.00071034 0)
(0.000546944 -0.000543048 0)
(0.000513488 -0.000220255 0)
(0.000270034 0.00021126 0)
(-0.000222024 0.000714657 0)
(-0.000989353 0.00126172 0)
(-0.00204831 0.00183116 0)
(-0.00340694 0.00240709 0)
(-0.00506677 0.00297775 0)
(-0.00702422 0.00353449 0)
(-0.00927179 0.00407107 0)
(-0.0117991 0.00458307 0)
(-0.0145935 0.00506746 0)
(-0.0176408 0.00552228 0)
(-0.020926 0.00594638 0)
(-0.0244331 0.00633925 0)
(-0.028146 0.00670084 0)
(-0.0320484 0.00703146 0)
(-0.036124 0.00733169 0)
(-0.0403568 0.00760229 0)
(-0.0447312 0.00784415 0)
(-0.0492317 0.00805822 0)
(-0.0538435 0.0082455 0)
(-0.0585522 0.00840701 0)
(-0.0633437 0.00854373 0)
(-0.0682046 0.0086566 0)
(-0.0731217 0.00874652 0)
(-0.0780824 0.00881433 0)
(-0.0830745 0.00886077 0)
(-0.0880861 0.00888652 0)
(-0.0931055 0.0088922 0)
(-0.0981215 0.00887831 0)
(-0.103123 0.00884529 0)
(-0.108099 0.00879352 0)
(-0.11304 0.00872328 0)
(-0.117934 0.0086348 0)
(-0.122771 0.00852825 0)
(-0.127542 0.00840374 0)
(-0.132235 0.00826135 0)
(-0.13684 0.00810111 0)
(-0.141348 0.00792303 0)
(-0.145748 0.0077271 0)
(-0.150031 0.0075133 0)
(-0.154185 0.00728161 0)
(-0.158202 0.00703202 0)
(-0.16207 0.00676454 0)
(-0.16578 0.00647922 0)
(-0.169323 0.00617611 0)
(-0.172687 0.00585535 0)
(-0.175864 0.0055171 0)
(-0.178844 0.00516159 0)
(-0.181617 0.00478912 0)
(-0.184175 0.00440007 0)
(-0.186507 0.00399488 0)
(-0.188606 0.0035741 0)
(-0.190464 0.00313835 0)
(-0.192071 0.00268836 0)
(-0.193422 0.00222495 0)
(-0.194508 0.00174903 0)
(-0.195324 0.00126164 0)
(-0.195864 0.000763877 0)
(-0.196122 0.000256985 0)
(-0.196094 -0.000257715 0)
(-0.195777 -0.000778797 0)
(-0.195168 -0.00130474 0)
(-0.194264 -0.00183393 0)
(-0.193064 -0.00236467 0)
(-0.19157 -0.00289517 0)
(-0.18978 -0.00342357 0)
(-0.187698 -0.00394796 0)
(-0.185327 -0.00446635 0)
(-0.18267 -0.0049767 0)
(-0.179733 -0.00547696 0)
(-0.176522 -0.00596501 0)
(-0.173044 -0.00643875 0)
(-0.169309 -0.00689607 0)
(-0.165325 -0.00733485 0)
(-0.161105 -0.00775301 0)
(-0.15666 -0.00814852 0)
(-0.152002 -0.00851938 0)
(-0.147147 -0.00886365 0)
(-0.142109 -0.0091795 0)
(-0.136905 -0.00946517 0)
(-0.131551 -0.00971901 0)
(-0.126066 -0.00993951 0)
(-0.120468 -0.0101253 0)
(-0.114777 -0.010275 0)
(-0.109012 -0.0103878 0)
(-0.103194 -0.0104625 0)
(-0.0973438 -0.0104985 0)
(-0.0914833 -0.0104953 0)
(-0.0856336 -0.0104524 0)
(-0.0798164 -0.0103698 0)
(-0.0740535 -0.0102475 0)
(-0.0683663 -0.0100858 0)
(-0.0627763 -0.00988512 0)
(-0.0573044 -0.00964621 0)
(-0.0519713 -0.00936998 0)
(-0.0467969 -0.0090576 0)
(-0.0418006 -0.00871041 0)
(-0.0370008 -0.00833002 0)
(-0.032415 -0.00791822 0)
(-0.0280597 -0.00747706 0)
(-0.0239502 -0.00700879 0)
(-0.0201005 -0.00651591 0)
(-0.0165229 -0.00600116 0)
(-0.0132285 -0.00546752 0)
(-0.0102264 -0.00491826 0)
(-0.00752377 -0.00435693 0)
(-0.00512586 -0.00378743 0)
(-0.00303557 -0.00321405 0)
(-0.00125334 -0.00264152 0)
(0.000223113 -0.00207511 0)
(0.0013991 -0.00152075 0)
(0.00228329 -0.000985164 0)
(0.00288807 -0.000476084 0)
(0.00323006 -2.46749e-06 0)
(0.0033306 0.000425199 0)
(0.00321632 0.000794561 0)
(0.00291984 0.00109104 0)
(0.00248035 0.00129756 0)
(0.00194424 0.00139461 0)
(0.00136447 0.001361 0)
(0.00080002 0.00117608 0)
(0.000329959 0.000824974 0)
(6.52596e-05 0.000313272 0)
(4.65822e-05 -0.000452 0)
(0.000162052 -0.000834179 0)
(0.000258608 -0.000820805 0)
(0.000224862 -0.000509776 0)
(-1.82879e-05 2.15935e-05 0)
(-0.000525423 0.000709966 0)
(-0.00133692 0.00150455 0)
(-0.00248109 0.00236551 0)
(-0.00397568 0.00326196 0)
(-0.00582971 0.00417024 0)
(-0.00804513 0.00507237 0)
(-0.0106182 0.00595485 0)
(-0.0135406 0.00680767 0)
(-0.0168007 0.00762356 0)
(-0.0203842 0.00839738 0)
(-0.0242746 0.00912568 0)
(-0.0284543 0.0098063 0)
(-0.0329047 0.0104381 0)
(-0.0376067 0.0110207 0)
(-0.0425407 0.0115544 0)
(-0.0476874 0.0120398 0)
(-0.0530274 0.0124779 0)
(-0.0585416 0.01287 0)
(-0.0642115 0.0132174 0)
(-0.0700186 0.0135216 0)
(-0.0759454 0.0137841 0)
(-0.0819745 0.0140063 0)
(-0.0880891 0.0141897 0)
(-0.0942731 0.0143357 0)
(-0.100511 0.0144455 0)
(-0.106786 0.0145203 0)
(-0.113085 0.0145611 0)
(-0.119393 0.0145688 0)
(-0.125695 0.0145444 0)
(-0.131977 0.0144884 0)
(-0.138227 0.0144015 0)
(-0.14443 0.0142842 0)
(-0.150573 0.0141367 0)
(-0.156644 0.0139595 0)
(-0.162628 0.0137527 0)
(-0.168514 0.0135164 0)
(-0.174288 0.0132507 0)
(-0.179937 0.0129558 0)
(-0.185449 0.0126315 0)
(-0.190812 0.0122779 0)
(-0.196012 0.0118951 0)
(-0.201037 0.011483 0)
(-0.205874 0.0110417 0)
(-0.210511 0.0105713 0)
(-0.214935 0.010072 0)
(-0.219135 0.00954395 0)
(-0.223098 0.00898757 0)
(-0.226812 0.00840324 0)
(-0.230265 0.0077915 0)
(-0.233447 0.00715298 0)
(-0.236346 0.00648847 0)
(-0.238952 0.00579887 0)
(-0.241254 0.00508525 0)
(-0.243242 0.00434881 0)
(-0.244909 0.0035909 0)
(-0.246245 0.00281306 0)
(-0.247242 0.00201696 0)
(-0.247894 0.00120444 0)
(-0.248194 0.000377512 0)
(-0.248137 -0.000461669 0)
(-0.247719 -0.00131078 0)
(-0.246937 -0.00216735 0)
(-0.245788 -0.00302876 0)
(-0.244272 -0.00389226 0)
(-0.242387 -0.00475496 0)
(-0.240137 -0.00561388 0)
(-0.237523 -0.00646591 0)
(-0.234549 -0.00730785 0)
(-0.231221 -0.00813645 0)
(-0.227545 -0.00894837 0)
(-0.223529 -0.00974025 0)
(-0.219183 -0.0105087 0)
(-0.214517 -0.0112503 0)
(-0.209543 -0.0119618 0)
(-0.204276 -0.0126397 0)
(-0.19873 -0.0132808 0)
(-0.192921 -0.013882 0)
(-0.186867 -0.0144401 0)
(-0.180587 -0.0149522 0)
(-0.1741 -0.0154155 0)
(-0.167427 -0.0158274 0)
(-0.160591 -0.0161854 0)
(-0.153615 -0.0164874 0)
(-0.146521 -0.0167313 0)
(-0.139336 -0.0169155 0)
(-0.132084 -0.0170385 0)
(-0.12479 -0.0170991 0)
(-0.117482 -0.0170965 0)
(-0.110184 -0.0170301 0)
(-0.102925 -0.0168997 0)
(-0.0957307 -0.0167054 0)
(-0.0886271 -0.0164476 0)
(-0.0816407 -0.0161272 0)
(-0.0747972 -0.0157453 0)
(-0.0681218 -0.0153034 0)
(-0.0616391 -0.0148034 0)
(-0.0553726 -0.0142475 0)
(-0.0493449 -0.0136382 0)
(-0.0435776 -0.0129786 0)
(-0.0380906 -0.0122719 0)
(-0.0329027 -0.0115217 0)
(-0.0280308 -0.0107323 0)
(-0.0234902 -0.00990792 0)
(-0.019294 -0.00905353 0)
(-0.0154534 -0.00817442 0)
(-0.0119769 -0.00727639 0)
(-0.00887094 -0.00636576 0)
(-0.00613873 -0.00544947 0)
(-0.00378071 -0.00453516 0)
(-0.00179394 -0.00363129 0)
(-0.000171871 -0.00274733 0)
(0.001096 -0.00189389 0)
(0.00202455 -0.00108303 0)
(0.00263348 -0.000328537 0)
(0.00294778 0.00035375 0)
(0.00299825 0.000945549 0)
(0.00282205 0.00142579 0)
(0.00246323 0.00177039 0)
(0.00197332 0.00195239 0)
(0.00141067 0.00194272 0)
(0.000840484 0.00171219 0)
(0.000351477 0.00123533 0)
(7.04126e-05 0.000497641 0)
(3.18393e-05 -0.000524837 0)
(7.64734e-05 -0.000902608 0)
(2.81002e-05 -0.000774118 0)
(-0.000211626 -0.000264325 0)
(-0.000716744 0.000530057 0)
(-0.00154086 0.0015297 0)
(-0.00272375 0.0026703 0)
(-0.00429335 0.00390054 0)
(-0.00626732 0.00517992 0)
(-0.0086546 0.00647674 0)
(-0.0114569 0.00776646 0)
(-0.0146698 0.00903025 0)
(-0.0182844 0.0102539 0)
(-0.0222876 0.0114269 0)
(-0.0266637 0.0125416 0)
(-0.0313944 0.0135927 0)
(-0.03646 0.0145768 0)
(-0.0418394 0.0154919 0)
(-0.0475111 0.0163371 0)
(-0.0534528 0.0171125 0)
(-0.0596423 0.0178187 0)
(-0.0660574 0.0184568 0)
(-0.0726762 0.0190285 0)
(-0.0794768 0.0195355 0)
(-0.0864382 0.0199797 0)
(-0.0935395 0.0203631 0)
(-0.100761 0.0206877 0)
(-0.108082 0.0209554 0)
(-0.115483 0.0211682 0)
(-0.122947 0.0213277 0)
(-0.130455 0.0214355 0)
(-0.137988 0.0214932 0)
(-0.145531 0.0215021 0)
(-0.153065 0.0214633 0)
(-0.160574 0.0213778 0)
(-0.168042 0.0212464 0)
(-0.175453 0.0210698 0)
(-0.18279 0.0208486 0)
(-0.190038 0.0205833 0)
(-0.197181 0.0202741 0)
(-0.204205 0.0199212 0)
(-0.211093 0.0195249 0)
(-0.21783 0.0190852 0)
(-0.224401 0.0186022 0)
(-0.230791 0.018076 0)
(-0.236984 0.0175066 0)
(-0.242966 0.0168942 0)
(-0.248723 0.0162389 0)
(-0.254238 0.0155408 0)
(-0.259497 0.0148004 0)
(-0.264487 0.0140179 0)
(-0.269192 0.013194 0)
(-0.273598 0.0123293 0)
(-0.277693 0.0114247 0)
(-0.281462 0.0104811 0)
(-0.284893 0.00949968 0)
(-0.287973 0.00848192 0)
(-0.29069 0.00742938 0)
(-0.293034 0.00634385 0)
(-0.294994 0.00522738 0)
(-0.29656 0.00408222 0)
(-0.297722 0.00291085 0)
(-0.298474 0.001716 0)
(-0.298808 0.000500616 0)
(-0.298718 -0.000732122 0)
(-0.298199 -0.00197882 0)
(-0.297248 -0.00323585 0)
(-0.295862 -0.0044994 0)
(-0.294041 -0.00576545 0)
(-0.291784 -0.00702982 0)
(-0.289093 -0.00828813 0)
(-0.285973 -0.00953588 0)
(-0.282427 -0.0107684 0)
(-0.278462 -0.0119811 0)
(-0.274086 -0.013169 0)
(-0.269308 -0.0143273 0)
(-0.264141 -0.015451 0)
(-0.258596 -0.0165354 0)
(-0.252688 -0.0175754 0)
(-0.246432 -0.0185664 0)
(-0.239848 -0.0195036 0)
(-0.232953 -0.0203824 0)
(-0.225769 -0.0211983 0)
(-0.218317 -0.0219472 0)
(-0.21062 -0.022625 0)
(-0.202704 -0.0232279 0)
(-0.194594 -0.0237524 0)
(-0.186317 -0.0241954 0)
(-0.177901 -0.024554 0)
(-0.169375 -0.0248258 0)
(-0.160768 -0.0250086 0)
(-0.15211 -0.0251008 0)
(-0.143432 -0.0251012 0)
(-0.134764 -0.025009 0)
(-0.126139 -0.0248239 0)
(-0.117586 -0.0245461 0)
(-0.109136 -0.0241762 0)
(-0.100821 -0.0237154 0)
(-0.0926704 -0.0231654 0)
(-0.0847131 -0.0225284 0)
(-0.076978 -0.0218071 0)
(-0.0694927 -0.0210048 0)
(-0.0622836 -0.0201253 0)
(-0.0553756 -0.0191728 0)
(-0.0487921 -0.0181522 0)
(-0.0425549 -0.0170688 0)
(-0.0366837 -0.0159286 0)
(-0.0311962 -0.0147382 0)
(-0.0261077 -0.0135045 0)
(-0.0214311 -0.0122355 0)
(-0.0171765 -0.0109395 0)
(-0.0133509 -0.00962574 0)
(-0.00995823 -0.00830434 0)
(-0.00699896 -0.00698634 0)
(-0.00446969 -0.00568394 0)
(-0.00236297 -0.00441063 0)
(-0.000666896 -0.00318149 0)
(0.000635266 -0.00201342 0)
(0.00156548 -0.000925484 0)
(0.00215139 6.06964e-05 0)
(0.00242675 0.000920594 0)
(0.00243186 0.00162641 0)
(0.00221415 0.00214686 0)
(0.00182863 0.00244723 0)
(0.00133758 0.00248994 0)
(0.000810911 0.00223586 0)
(0.000343502 0.00164642 0)
(6.95228e-05 0.000684864 0)
(1.4485e-05 -0.000548069 0)
(-2.58001e-05 -0.000843871 0)
(-0.000247257 -0.000533405 0)
(-0.000729017 0.000236249 0)
(-0.00153626 0.00135106 0)
(-0.00271931 0.00271701 0)
(-0.00431533 0.00425708 0)
(-0.00635027 0.00590907 0)
(-0.00884036 0.00762314 0)
(-0.0117934 0.00935966 0)
(-0.0152101 0.0110874 0)
(-0.0190853 0.0127822 0)
(-0.0234086 0.0144252 0)
(-0.0281658 0.0160025 0)
(-0.0333398 0.0175037 0)
(-0.0389105 0.0189214 0)
(-0.0448563 0.0202507 0)
(-0.0511543 0.0214885 0)
(-0.0577804 0.0226334 0)
(-0.0647104 0.0236849 0)
(-0.0719193 0.0246436 0)
(-0.0793826 0.0255109 0)
(-0.0870755 0.0262885 0)
(-0.0949737 0.0269785 0)
(-0.103053 0.0275833 0)
(-0.111291 0.0281054 0)
(-0.119664 0.0285473 0)
(-0.128149 0.0289114 0)
(-0.136724 0.0292002 0)
(-0.145369 0.0294158 0)
(-0.154062 0.0295605 0)
(-0.162783 0.0296361 0)
(-0.171512 0.0296443 0)
(-0.180229 0.0295866 0)
(-0.188915 0.0294644 0)
(-0.197552 0.0292788 0)
(-0.206119 0.0290308 0)
(-0.2146 0.028721 0)
(-0.222975 0.02835 0)
(-0.231228 0.0279185 0)
(-0.239339 0.0274266 0)
(-0.247291 0.0268747 0)
(-0.255066 0.0262629 0)
(-0.262647 0.0255915 0)
(-0.270017 0.0248605 0)
(-0.277157 0.0240701 0)
(-0.284051 0.0232206 0)
(-0.290681 0.0223121 0)
(-0.297031 0.0213451 0)
(-0.303083 0.0203201 0)
(-0.308822 0.0192376 0)
(-0.31423 0.0180985 0)
(-0.319293 0.0169037 0)
(-0.323994 0.0156546 0)
(-0.328318 0.0143525 0)
(-0.33225 0.0129991 0)
(-0.335777 0.0115963 0)
(-0.338886 0.0101465 0)
(-0.341563 0.00865212 0)
(-0.343796 0.00711599 0)
(-0.345576 0.00554125 0)
(-0.346891 0.00393134 0)
(-0.347734 0.00229 0)
(-0.348096 0.000621288 0)
(-0.34797 -0.00107044 0)
(-0.347352 -0.00278053 0)
(-0.346237 -0.00450404 0)
(-0.344624 -0.00623576 0)
(-0.342511 -0.00797021 0)
(-0.339899 -0.0097017 0)
(-0.33679 -0.0114243 0)
(-0.333188 -0.0131319 0)
(-0.329099 -0.0148182 0)
(-0.32453 -0.0164767 0)
(-0.319491 -0.0181011 0)
(-0.313992 -0.0196846 0)
(-0.308047 -0.0212207 0)
(-0.30167 -0.0227027 0)
(-0.294878 -0.024124 0)
(-0.287689 -0.0254783 0)
(-0.280123 -0.026759 0)
(-0.272202 -0.0279601 0)
(-0.263949 -0.0290755 0)
(-0.25539 -0.0300996 0)
(-0.24655 -0.0310268 0)
(-0.237458 -0.0318522 0)
(-0.228143 -0.032571 0)
(-0.218636 -0.033179 0)
(-0.208967 -0.0336723 0)
(-0.199171 -0.0340476 0)
(-0.189279 -0.0343022 0)
(-0.179327 -0.0344337 0)
(-0.169348 -0.0344406 0)
(-0.159378 -0.0343219 0)
(-0.149452 -0.0340771 0)
(-0.139605 -0.0337064 0)
(-0.129871 -0.0332109 0)
(-0.120285 -0.0325921 0)
(-0.110882 -0.0318524 0)
(-0.101695 -0.0309946 0)
(-0.0927551 -0.0300227 0)
(-0.0840945 -0.0289409 0)
(-0.0757427 -0.0277544 0)
(-0.067728 -0.0264692 0)
(-0.0600768 -0.0250917 0)
(-0.0528138 -0.0236293 0)
(-0.0459612 -0.0220902 0)
(-0.039539 -0.0204832 0)
(-0.0335644 -0.0188179 0)
(-0.0280521 -0.0171051 0)
(-0.0230134 -0.0153561 0)
(-0.0184564 -0.0135836 0)
(-0.0143855 -0.011801 0)
(-0.0108015 -0.0100234 0)
(-0.0077006 -0.00826705 0)
(-0.00507495 -0.00654995 0)
(-0.00291167 -0.004892 0)
(-0.00119276 -0.00331533 0)
(0.000105292 -0.00184463 0)
(0.00101193 -0.000507519 0)
(0.00156287 0.000665014 0)
(0.00180053 0.0016383 0)
(0.00177451 0.00237369 0)
(0.00154217 0.00282851 0)
(0.0011684 0.00295617 0)
(0.000726311 0.00270679 0)
(0.0003135 0.00202791 0)
(6.45437e-05 0.000861477 0)
(-4.19045e-06 -0.000515296 0)
(-0.00013831 -0.000639727 0)
(-0.000552264 -7.16826e-05 0)
(-0.00130222 0.00102458 0)
(-0.00244183 0.00252041 0)
(-0.00401625 0.00430881 0)
(-0.00605847 0.00630131 0)
(-0.00859102 0.00842564 0)
(-0.0116275 0.0106232 0)
(-0.0151738 0.0128466 0)
(-0.0192288 0.0150584 0)
(-0.0237858 0.0172288 0)
(-0.0288331 0.0193347 0)
(-0.034355 0.0213583 0)
(-0.0403326 0.0232864 0)
(-0.0467445 0.0251094 0)
(-0.0535672 0.0268208 0)
(-0.0607759 0.0284162 0)
(-0.0683446 0.0298934 0)
(-0.0762469 0.0312515 0)
(-0.0844557 0.032491 0)
(-0.0929442 0.0336131 0)
(-0.101685 0.0346198 0)
(-0.110652 0.0355135 0)
(-0.119819 0.0362971 0)
(-0.129159 0.0369734 0)
(-0.138647 0.0375454 0)
(-0.148259 0.0380162 0)
(-0.157969 0.0383888 0)
(-0.167754 0.0386657 0)
(-0.177591 0.0388497 0)
(-0.187457 0.0389432 0)
(-0.197328 0.0389481 0)
(-0.207184 0.0388666 0)
(-0.217002 0.0387002 0)
(-0.226761 0.0384503 0)
(-0.23644 0.0381182 0)
(-0.246018 0.0377048 0)
(-0.255475 0.037211 0)
(-0.26479 0.0366373 0)
(-0.273943 0.0359843 0)
(-0.282914 0.0352523 0)
(-0.291683 0.0344417 0)
(-0.300231 0.0335528 0)
(-0.308536 0.0325857 0)
(-0.316581 0.0315408 0)
(-0.324345 0.0304185 0)
(-0.331809 0.0292191 0)
(-0.338955 0.0279432 0)
(-0.345763 0.0265916 0)
(-0.352215 0.0251651 0)
(-0.358293 0.023665 0)
(-0.363979 0.0220925 0)
(-0.369255 0.0204495 0)
(-0.374106 0.0187377 0)
(-0.378514 0.0169595 0)
(-0.382465 0.0151176 0)
(-0.385943 0.0132148 0)
(-0.388935 0.0112547 0)
(-0.391427 0.00924083 0)
(-0.393408 0.0071774 0)
(-0.394867 0.00506892 0)
(-0.395794 0.0029203 0)
(-0.396181 0.000736851 0)
(-0.39602 -0.00147574 0)
(-0.395306 -0.0037114 0)
(-0.394035 -0.0059637 0)
(-0.392205 -0.00822587 0)
(-0.389814 -0.0104908 0)
(-0.386864 -0.0127511 0)
(-0.383357 -0.0149991 0)
(-0.379299 -0.0172268 0)
(-0.374695 -0.0194262 0)
(-0.369553 -0.021589 0)
(-0.363886 -0.0237067 0)
(-0.357704 -0.0257708 0)
(-0.351023 -0.0277729 0)
(-0.343859 -0.0297043 0)
(-0.33623 -0.0315566 0)
(-0.328156 -0.0333215 0)
(-0.319661 -0.0349907 0)
(-0.310768 -0.0365564 0)
(-0.301503 -0.0380108 0)
(-0.291894 -0.0393465 0)
(-0.281971 -0.0405567 0)
(-0.271763 -0.0416348 0)
(-0.261305 -0.0425747 0)
(-0.25063 -0.0433711 0)
(-0.239772 -0.0440188 0)
(-0.228767 -0.0445138 0)
(-0.217654 -0.0448525 0)
(-0.206468 -0.0450319 0)
(-0.195249 -0.04505 0)
(-0.184036 -0.0449054 0)
(-0.172866 -0.0445978 0)
(-0.161779 -0.0441274 0)
(-0.150814 -0.0434954 0)
(-0.140008 -0.042704 0)
(-0.1294 -0.0417561 0)
(-0.119026 -0.0406557 0)
(-0.108922 -0.0394075 0)
(-0.0991222 -0.0380174 0)
(-0.0896599 -0.0364919 0)
(-0.0805663 -0.0348387 0)
(-0.0718706 -0.0330664 0)
(-0.0636002 -0.0311845 0)
(-0.0557796 -0.0292035 0)
(-0.0484311 -0.0271349 0)
(-0.0415739 -0.0249914 0)
(-0.035224 -0.0227865 0)
(-0.0293942 -0.0205352 0)
(-0.0240937 -0.0182536 0)
(-0.0193275 -0.0159593 0)
(-0.0150968 -0.0136713 0)
(-0.011398 -0.0114104 0)
(-0.00822283 -0.00919954 0)
(-0.00555809 -0.00706363 0)
(-0.00338499 -0.0050303 0)
(-0.00167909 -0.00313008 0)
(-0.000409872 -0.00139679 0)
(0.000459579 0.000132061 0)
(0.000972917 0.00141483 0)
(0.00118102 0.00240545 0)
(0.00114254 0.00305312 0)
(0.000923838 0.00330209 0)
(0.000599704 0.00309167 0)
(0.000267481 0.00235585 0)
(5.68676e-05 0.00101775 0)
(-2.34432e-05 -0.000422806 0)
(-0.000256798 -0.000278248 0)
(-0.000876165 0.000629853 0)
(-0.00191275 0.00212446 0)
(-0.00340691 0.00406508 0)
(-0.00539725 0.00633372 0)
(-0.0079113 0.00883186 0)
(-0.010967 0.0114782 0)
(-0.0145744 0.014206 0)
(-0.0187365 0.0169611 0)
(-0.0234499 0.0196996 0)
(-0.0287056 0.0223866 0)
(-0.0344903 0.0249945 0)
(-0.0407864 0.0275022 0)
(-0.0475735 0.0298934 0)
(-0.0548284 0.0321562 0)
(-0.062526 0.0342823 0)
(-0.0706395 0.0362662 0)
(-0.0791412 0.0381046 0)
(-0.0880027 0.0397962 0)
(-0.097195 0.0413411 0)
(-0.106689 0.0427406 0)
(-0.116456 0.0439967 0)
(-0.126466 0.0451122 0)
(-0.136692 0.0460902 0)
(-0.147105 0.0469341 0)
(-0.157678 0.0476473 0)
(-0.168382 0.0482335 0)
(-0.179192 0.0486959 0)
(-0.190081 0.049038 0)
(-0.201024 0.0492628 0)
(-0.211995 0.0493731 0)
(-0.222969 0.0493715 0)
(-0.233923 0.0492604 0)
(-0.244832 0.0490417 0)
(-0.255673 0.0487171 0)
(-0.266422 0.0482883 0)
(-0.277056 0.0477563 0)
(-0.287553 0.0471222 0)
(-0.297889 0.0463869 0)
(-0.308043 0.0455509 0)
(-0.317993 0.0446149 0)
(-0.327715 0.0435793 0)
(-0.337189 0.0424445 0)
(-0.346392 0.0412109 0)
(-0.355303 0.0398789 0)
(-0.3639 0.0384492 0)
(-0.372163 0.0369222 0)
(-0.38007 0.0352989 0)
(-0.3876 0.0335803 0)
(-0.394734 0.0317676 0)
(-0.401452 0.0298624 0)
(-0.407733 0.0278665 0)
(-0.413559 0.025782 0)
(-0.418913 0.0236116 0)
(-0.423775 0.0213583 0)
(-0.42813 0.0190253 0)
(-0.43196 0.0166166 0)
(-0.435252 0.0141364 0)
(-0.437991 0.0115896 0)
(-0.440165 0.0089812 0)
(-0.44176 0.00631712 0)
(-0.442768 0.0036035 0)
(-0.443179 0.000847057 0)
(-0.442985 -0.00194505 0)
(-0.442181 -0.00476519 0)
(-0.440762 -0.00760529 0)
(-0.438727 -0.0104569 0)
(-0.436073 -0.013311 0)
(-0.432804 -0.0161584 0)
(-0.428921 -0.0189896 0)
(-0.42443 -0.0217945 0)
(-0.419338 -0.0245632 0)
(-0.413655 -0.0272853 0)
(-0.407392 -0.0299502 0)
(-0.400564 -0.0325474 0)
(-0.393185 -0.0350662 0)
(-0.385274 -0.0374961 0)
(-0.376852 -0.0398265 0)
(-0.36794 -0.0420471 0)
(-0.358563 -0.0441477 0)
(-0.348747 -0.0461183 0)
(-0.338521 -0.0479495 0)
(-0.327915 -0.0496322 0)
(-0.316962 -0.0511576 0)
(-0.305694 -0.0525177 0)
(-0.294147 -0.053705 0)
(-0.282359 -0.0547127 0)
(-0.270366 -0.0555347 0)
(-0.258209 -0.0561658 0)
(-0.245928 -0.0566014 0)
(-0.233563 -0.0568382 0)
(-0.221156 -0.0568734 0)
(-0.20875 -0.0567054 0)
(-0.196386 -0.0563337 0)
(-0.184108 -0.0557587 0)
(-0.171956 -0.054982 0)
(-0.159973 -0.0540061 0)
(-0.148199 -0.0528348 0)
(-0.136675 -0.051473 0)
(-0.12544 -0.0499267 0)
(-0.114531 -0.0482031 0)
(-0.103984 -0.0463106 0)
(-0.0938333 -0.0442586 0)
(-0.0841112 -0.0420579 0)
(-0.0748471 -0.0397205 0)
(-0.0660681 -0.0372594 0)
(-0.0577985 -0.034689 0)